
     Program PWSCF v.6.7MaX starts on 19Apr2021 at 16: 2:16 

     This program is part of the open-source Quantum ESPRESSO suite
     for quantum simulation of materials; please cite
         "P. Giannozzi et al., J. Phys.:Condens. Matter 21 395502 (2009);
         "P. Giannozzi et al., J. Phys.:Condens. Matter 29 465901 (2017);
          URL http://www.quantum-espresso.org", 
     in publications or presentations arising from this work. More details at
     http://www.quantum-espresso.org/quote

     Parallel version (MPI), running on     8 processors

     MPI processes distributed on     1 nodes
     R & G space division:  proc/nbgrp/npool/nimage =       8
     Waiting for input...
     Reading input from standard input

     Current dimensions of program PWSCF are:
     Max number of different atomic species (ntypx) = 10
     Max number of k-points (npk) =  40000
     Max angular momentum in pseudopotentials (lmaxx) =  3

     gamma-point specific algorithms are used

     Subspace diagonalization in iterative solution of the eigenvalue problem:
     a serial algorithm will be used

 
     Parallelization info
     --------------------
     sticks:   dense  smooth     PW     G-vecs:    dense   smooth      PW
     Min        1219    1219    305                75504    75504    9446
     Max        1222    1222    308                75510    75510    9450
     Sum        9769    9769   2449               604053   604053   75591
 


     bravais-lattice index     =            6
     lattice parameter (alat)  =      32.0000  a.u.
     unit-cell volume          =   27197.4400 (a.u.)^3
     number of atoms/cell      =           12
     number of atomic types    =            2
     number of electrons       =        30.00
     number of Kohn-Sham states=           15
     kinetic-energy cutoff     =      30.0000  Ry
     charge density cutoff     =     120.0000  Ry
     scf convergence threshold =      1.0E-08
     mixing beta               =       0.6000
     number of iterations used =            8  plain     mixing
     Exchange-correlation= SLA  LYP  B88  BLYP
                           (   1   3   1   3   0   0   0)

     celldm(1)=  32.000000  celldm(2)=   0.000000  celldm(3)=   0.830000
     celldm(4)=   0.000000  celldm(5)=   0.000000  celldm(6)=   0.000000

     crystal axes: (cart. coord. in units of alat)
               a(1) = (   1.000000   0.000000   0.000000 )  
               a(2) = (   0.000000   1.000000   0.000000 )  
               a(3) = (   0.000000   0.000000   0.830000 )  

     reciprocal axes: (cart. coord. in units 2 pi/alat)
               b(1) = (  1.000000  0.000000  0.000000 )  
               b(2) = (  0.000000  1.000000  0.000000 )  
               b(3) = (  0.000000  0.000000  1.204819 )  


     PseudoPot. # 1 for H  read from file:
     ../../pseudo/H.blyp-vbc.UPF
     MD5 check sum: 1a3a213f4d5cd54e5c4bfa2599a500cd
     Pseudo is Norm-conserving, Zval =  1.0
     Generated by new atomic code, or converted to UPF format
     Using radial grid of  243 points,  0 beta functions with: 

     PseudoPot. # 2 for C  read from file:
     ../../pseudo/C.blyp-mt.UPF
     MD5 check sum: db83422a820e8534d47228c797c57ed3
     Pseudo is Norm-conserving, Zval =  4.0
     Generated by new atomic code, or converted to UPF format
     Using radial grid of  279 points,  1 beta functions with: 
                l(1) =   0

     atomic species   valence    mass     pseudopotential
        H              1.00     1.00000     H ( 1.00)
        C              4.00    12.01000     C ( 1.00)

     No symmetry found



   Cartesian axes

     site n.     atom                  positions (alat units)
         1           C   tau(   1) = (   0.3326627   0.3732718   0.2952697  )
         2           C   tau(   2) = (   0.4043454   0.4973890   0.2952697  )
         3           C   tau(   3) = (   0.4760191   0.4560089   0.2952697  )
         4           C   tau(   4) = (   0.4760166   0.3732585   0.2952697  )
         5           C   tau(   5) = (   0.4043364   0.3318871   0.2952697  )
         6           C   tau(   6) = (   0.3326674   0.4560225   0.2952697  )
         7           H   tau(   7) = (   0.4043574   0.5617361   0.2952697  )
         8           H   tau(   8) = (   0.5317432   0.4881776   0.2952697  )
         9           H   tau(   9) = (   0.5317393   0.3410894   0.2952697  )
        10           H   tau(  10) = (   0.4043332   0.2675452   0.2952697  )
        11           H   tau(  11) = (   0.2769368   0.3411096   0.2952697  )
        12           H   tau(  12) = (   0.2769507   0.4882003   0.2952697  )

     number of k points=     1
                       cart. coord. in units 2pi/alat
        k(    1) = (   0.0000000   0.0000000   0.0000000), wk =   2.0000000

     Dense  grid:   302027 G-vectors     FFT dimensions: ( 120, 120,  96)

     Estimated max dynamical RAM per process >      34.58 MB

     Estimated total dynamical RAM >     276.66 MB

     Initial potential from superposition of free atoms

     starting charge   29.99964, renormalised to   30.00000

     negative rho (up, down):  6.315E-02 0.000E+00
     Starting wfcs are   30 randomized atomic wfcs

     total cpu time spent up to now is        0.4 secs

     Self-consistent Calculation

     iteration #  1     ecut=    30.00 Ry     beta= 0.60
     Davidson diagonalization with overlap
     ethr =  1.00E-02,  avg # of iterations =  2.0

     negative rho (up, down):  2.468E-02 0.000E+00

     total cpu time spent up to now is        0.8 secs

     total energy              =     -74.00104583 Ry
     estimated scf accuracy    <       1.19162861 Ry

     iteration #  2     ecut=    30.00 Ry     beta= 0.60
     Davidson diagonalization with overlap
     ethr =  3.97E-03,  avg # of iterations =  2.0

     negative rho (up, down):  1.143E-02 0.000E+00

     total cpu time spent up to now is        1.2 secs

     total energy              =     -74.23462764 Ry
     estimated scf accuracy    <       0.12716802 Ry

     iteration #  3     ecut=    30.00 Ry     beta= 0.60
     Davidson diagonalization with overlap
     ethr =  4.24E-04,  avg # of iterations =  2.0

     negative rho (up, down):  1.773E-03 0.000E+00

     total cpu time spent up to now is        1.6 secs

     total energy              =     -74.25297760 Ry
     estimated scf accuracy    <       0.01028619 Ry

     iteration #  4     ecut=    30.00 Ry     beta= 0.60
     Davidson diagonalization with overlap
     ethr =  3.43E-05,  avg # of iterations =  2.0

     negative rho (up, down):  3.195E-04 0.000E+00

     total cpu time spent up to now is        1.9 secs

     total energy              =     -74.25379576 Ry
     estimated scf accuracy    <       0.00044708 Ry

     iteration #  5     ecut=    30.00 Ry     beta= 0.60
     Davidson diagonalization with overlap
     ethr =  1.49E-06,  avg # of iterations =  2.0

     negative rho (up, down):  1.945E-08 0.000E+00

     total cpu time spent up to now is        2.2 secs

     total energy              =     -74.25388498 Ry
     estimated scf accuracy    <       0.00002980 Ry

     iteration #  6     ecut=    30.00 Ry     beta= 0.60
     Davidson diagonalization with overlap
     ethr =  9.93E-08,  avg # of iterations =  2.0

     total cpu time spent up to now is        2.6 secs

     total energy              =     -74.25388906 Ry
     estimated scf accuracy    <       0.00000143 Ry

     iteration #  7     ecut=    30.00 Ry     beta= 0.60
     Davidson diagonalization with overlap
     ethr =  4.77E-09,  avg # of iterations =  2.0

     total cpu time spent up to now is        3.0 secs

     total energy              =     -74.25388956 Ry
     estimated scf accuracy    <       0.00000003 Ry

     iteration #  8     ecut=    30.00 Ry     beta= 0.60
     Davidson diagonalization with overlap
     ethr =  9.79E-11,  avg # of iterations =  3.0

     total cpu time spent up to now is        3.4 secs

     End of self-consistent calculation

          k = 0.0000 0.0000 0.0000 ( 37796 PWs)   bands (ev):

   -21.1409 -18.3896 -18.3883 -14.6741 -14.6729 -12.5121 -11.0334 -10.4378
    -9.8983  -9.8963  -8.5697  -7.8758  -7.8751  -5.8257  -5.8251

     highest occupied level (ev):    -5.8251

!    total energy              =     -74.25388958 Ry
     estimated scf accuracy    <          1.1E-09 Ry

     The total energy is the sum of the following terms:
     one-electron contribution =    -349.98763338 Ry
     hartree contribution      =     177.96508213 Ry
     xc contribution           =     -24.66650039 Ry
     ewald contribution        =     122.43516206 Ry

     convergence has been achieved in   8 iterations

     Writing output data file ./tmp/Benzene.save/
 
     init_run     :      0.41s CPU      0.43s WALL (       1 calls)
     electrons    :      2.83s CPU      2.92s WALL (       1 calls)

     Called by init_run:
     wfcinit      :      0.13s CPU      0.13s WALL (       1 calls)
     potinit      :      0.17s CPU      0.17s WALL (       1 calls)
     hinit0       :      0.05s CPU      0.06s WALL (       1 calls)

     Called by electrons:
     c_bands      :      1.50s CPU      1.51s WALL (       8 calls)
     sum_band     :      0.47s CPU      0.47s WALL (       8 calls)
     v_of_rho     :      0.80s CPU      0.86s WALL (       9 calls)
     mix_rho      :      0.14s CPU      0.14s WALL (       8 calls)

     Called by c_bands:
     init_us_2    :      0.01s CPU      0.01s WALL (      17 calls)
     regterg      :      1.50s CPU      1.51s WALL (       8 calls)

     Called by *egterg:
     rdiaghg      :      0.01s CPU      0.01s WALL (      25 calls)
     h_psi        :      1.52s CPU      1.53s WALL (      26 calls)
     g_psi        :      0.01s CPU      0.01s WALL (      17 calls)

     Called by h_psi:
     h_psi:calbec :      0.01s CPU      0.01s WALL (      26 calls)
     vloc_psi     :      1.49s CPU      1.50s WALL (      26 calls)
     add_vuspsi   :      0.01s CPU      0.01s WALL (      26 calls)

     General routines
     calbec       :      0.01s CPU      0.01s WALL (      26 calls)
     fft          :      0.56s CPU      0.59s WALL (      71 calls)
     ffts         :      0.06s CPU      0.06s WALL (       8 calls)
     fftw         :      1.37s CPU      1.37s WALL (     456 calls)
 
     Parallel routines
     fft_scatt_xy :      0.41s CPU      0.42s WALL (     535 calls)
     fft_scatt_yz :      0.40s CPU      0.42s WALL (     535 calls)
 
     PWSCF        :      3.26s CPU      3.40s WALL

 
   This run was terminated on:  16: 2:19  19Apr2021            

=------------------------------------------------------------------------------=
   JOB DONE.
=------------------------------------------------------------------------------=
