### Running on host: cl

     Program BANDS v.6.7MaX starts on 17Apr2021 at 12:17:16 

     This program is part of the open-source Quantum ESPRESSO suite
     for quantum simulation of materials; please cite
         "P. Giannozzi et al., J. Phys.:Condens. Matter 21 395502 (2009);
         "P. Giannozzi et al., J. Phys.:Condens. Matter 29 465901 (2017);
          URL http://www.quantum-espresso.org", 
     in publications or presentations arising from this work. More details at
     http://www.quantum-espresso.org/quote

     Parallel version (MPI), running on     2 processors

     MPI processes distributed on     1 nodes
     R & G space division:  proc/nbgrp/npool/nimage =       2

     Reading xml data from directory:

     /tmp/QE/silicon.save/

     IMPORTANT: XC functional enforced from input :
     Exchange-correlation= PZ
                           (   1   1   0   0   0   0   0)
     Any further DFT definition will be discarded
     Please, verify this is what you really want


     Parallelization info
     --------------------
     sticks:   dense  smooth     PW     G-vecs:    dense   smooth      PW
     Min          81      81     30                  728      728     165
     Max          82      82     31                  731      731     166
     Sum         163     163     61                 1459     1459     331

     Reading collected, re-writing distributed wavefunctions
     high-symmetry point: -0.5000 0.5000 0.5000   x coordinate   0.0000
     high-symmetry point:  0.0000 0.0000 0.0000   x coordinate   0.8660
     high-symmetry point:  0.0000 0.0000 1.0000   x coordinate   1.8660
     high-symmetry point:  0.0000 0.5000 1.0000   x coordinate   2.3660
     high-symmetry point:  0.0000 0.7500 0.7500   x coordinate   2.7196
     high-symmetry point: -0.5000 0.5000 0.5000   x coordinate   3.3320

     Plottable bands (eV) written to file Si.bands.dat.gnu
     Bands written to file Si.bands.dat

 **************************************************************************

                    xk=(  -0.50000,   0.50000,   0.50000  )

     zone border point and non-symmorphic group 
     symmetry decomposition not available

 **************************************************************************

 **************************************************************************

                    xk=(  -0.45000,   0.45000,   0.45000  )

     point group C_3v (3m)  
     there are  3 classes
     the character table:

       E     2C3   3s_v 
A_1    1.00  1.00  1.00
A_2    1.00  1.00 -1.00
E      2.00 -1.00  0.00

     the symmetry operations in each class and the name of the first element:

     E        1
                                                                 
     2C3      2    3
                                                                 
     3s_v     4    5    6
                                                                 

     Band symmetry, C_3v (3m)   point group:

     e(  1 -  1) =     -3.42562  eV     1   --> A_1  L_1       
     e(  2 -  2) =     -0.56646  eV     1   --> A_1  L_1       
     e(  3 -  4) =      5.07519  eV     2   --> E    L_3       
     e(  5 -  5) =      7.92751  eV     1   --> A_1  L_1       
     e(  6 -  7) =      9.70767  eV     2   --> E    L_3       
     e(  8 -  8) =     13.91466  eV     1   --> A_1  L_1       

 **************************************************************************

 **************************************************************************

                    xk=(  -0.40000,   0.40000,   0.40000  )

     Band symmetry, C_3v (3m)   point group:

     e(  1 -  1) =     -3.77963  eV     1   --> A_1  L_1       
     e(  2 -  2) =     -0.03644  eV     1   --> A_1  L_1       
     e(  3 -  4) =      5.13106  eV     2   --> E    L_3       
     e(  5 -  5) =      7.98418  eV     1   --> A_1  L_1       
     e(  6 -  7) =      9.77142  eV     2   --> E    L_3       
     e(  8 -  8) =     13.99625  eV     1   --> A_1  L_1       

 **************************************************************************

 **************************************************************************

                    xk=(  -0.35000,   0.35000,   0.35000  )

     Band symmetry, C_3v (3m)   point group:

     e(  1 -  1) =     -4.17170  eV     1   --> A_1  L_1       
     e(  2 -  2) =      0.66386  eV     1   --> A_1  L_1       
     e(  3 -  4) =      5.22316  eV     2   --> E    L_3       
     e(  5 -  5) =      8.08155  eV     1   --> A_1  L_1       
     e(  6 -  7) =      9.84180  eV     2   --> E    L_3       
     e(  8 -  8) =     14.07765  eV     1   --> A_1  L_1       

 **************************************************************************

 **************************************************************************

                    xk=(  -0.30000,   0.30000,   0.30000  )

     Band symmetry, C_3v (3m)   point group:

     e(  1 -  1) =     -4.55785  eV     1   --> A_1  L_1       
     e(  2 -  2) =      1.46901  eV     1   --> A_1  L_1       
     e(  3 -  4) =      5.35034  eV     2   --> E    L_3       
     e(  5 -  5) =      8.19855  eV     1   --> A_1  L_1       
     e(  6 -  7) =      9.88666  eV     2   --> E    L_3       
     e(  8 -  8) =     13.89264  eV     1   --> A_1  L_1       

 **************************************************************************

 **************************************************************************

                    xk=(  -0.25000,   0.25000,   0.25000  )

     Band symmetry, C_3v (3m)   point group:

     e(  1 -  1) =     -4.88967  eV     1   --> A_1  L_1       
     e(  2 -  2) =      2.35850  eV     1   --> A_1  L_1       
     e(  3 -  4) =      5.51325  eV     2   --> E    L_3       
     e(  5 -  5) =      8.36475  eV     1   --> A_1  L_1       
     e(  6 -  7) =      9.86027  eV     2   --> E    L_3       
     e(  8 -  8) =     13.24331  eV     1   --> A_1  L_1       

 **************************************************************************

 **************************************************************************

                    xk=(  -0.20000,   0.20000,   0.20000  )

     Band symmetry, C_3v (3m)   point group:

     e(  1 -  1) =     -5.17915  eV     1   --> A_1  L_1       
     e(  2 -  2) =      3.29031  eV     1   --> A_1  L_1       
     e(  3 -  4) =      5.70052  eV     2   --> E    L_3       
     e(  5 -  5) =      8.58121  eV     1   --> A_1  L_1       
     e(  6 -  7) =      9.71271  eV     2   --> E    L_3       
     e(  8 -  8) =     12.41492  eV     1   --> A_1  L_1       

 **************************************************************************

 **************************************************************************

                    xk=(  -0.15000,   0.15000,   0.15000  )

     Band symmetry, C_3v (3m)   point group:

     e(  1 -  1) =     -5.39855  eV     1   --> A_1  L_1       
     e(  2 -  2) =      4.24639  eV     1   --> A_1  L_1       
     e(  3 -  4) =      5.90329  eV     2   --> E    L_3       
     e(  5 -  5) =      8.80296  eV     1   --> A_1  L_1       
     e(  6 -  7) =      9.46518  eV     2   --> E    L_3       
     e(  8 -  8) =     11.55264  eV     1   --> A_1  L_1       

 **************************************************************************

 **************************************************************************

                    xk=(  -0.10000,   0.10000,   0.10000  )

     Band symmetry, C_3v (3m)   point group:

     e(  1 -  1) =     -5.56351  eV     1   --> A_1  L_1       
     e(  2 -  2) =      5.17006  eV     1   --> A_1  L_1       
     e(  3 -  4) =      6.09856  eV     2   --> E    L_3       
     e(  5 -  5) =      8.94072  eV     1   --> A_1  L_1       
     e(  6 -  7) =      9.18759  eV     2   --> E    L_3       
     e(  8 -  8) =     10.72603  eV     1   --> A_1  L_1       

 **************************************************************************

 **************************************************************************

                    xk=(  -0.05000,   0.05000,   0.05000  )

     Band symmetry, C_3v (3m)   point group:

     e(  1 -  1) =     -5.66288  eV     1   --> A_1  L_1       
     e(  2 -  2) =      5.95479  eV     1   --> A_1  L_1       
     e(  3 -  4) =      6.24903  eV     2   --> E    L_3       
     e(  5 -  5) =      8.95683  eV     1   --> A_1  L_1       
     e(  6 -  7) =      8.96818  eV     2   --> E    L_3       
     e(  8 -  8) =     10.09257  eV     1   --> A_1  L_1       

 **************************************************************************

 **************************************************************************

                    xk=(   0.00000,   0.00000,   0.00000  )

     point group O_h (m-3m) 
     there are 10 classes
     the character table:

       E     8C3   3C2   6C4   6C2'  i     8S6   3s_h  6S4   6s_d 
A_1g   1.00  1.00  1.00  1.00  1.00  1.00  1.00  1.00  1.00  1.00
A_2g   1.00  1.00  1.00 -1.00 -1.00  1.00  1.00  1.00 -1.00 -1.00
E_g    2.00 -1.00  2.00  0.00  0.00  2.00 -1.00  2.00  0.00  0.00
T_1g   3.00  0.00 -1.00  1.00 -1.00  3.00  0.00 -1.00  1.00 -1.00
T_2g   3.00  0.00 -1.00 -1.00  1.00  3.00  0.00 -1.00 -1.00  1.00
A_1u   1.00  1.00  1.00  1.00  1.00 -1.00 -1.00 -1.00 -1.00 -1.00
A_2u   1.00  1.00  1.00 -1.00 -1.00 -1.00 -1.00 -1.00  1.00  1.00
E_u    2.00 -1.00  2.00  0.00  0.00 -2.00  1.00 -2.00  0.00  0.00
T_1u   3.00  0.00 -1.00  1.00 -1.00 -3.00  0.00  1.00 -1.00  1.00
T_2u   3.00  0.00 -1.00 -1.00  1.00 -3.00  0.00  1.00  1.00 -1.00

     the symmetry operations in each class and the name of the first element:

     E        1
                                                                 
     8C3     17   19   20   18   24   21   22   23
                                                                 
     3C2      2    4    3
                                                                 
     6C4      7    8   15   16   12   11
                                                                 
     6C2'     5    6   14   13   10    9
                                                                 
     i       25
                                                                 
     8S6     41   43   44   42   48   45   46   47
                                                                 
     3s_h    26   28   27
                                                                 
     6S4     31   32   39   40   36   35
                                                                 
     6s_d    29   30   38   37   34   33
                                                                 

     Band symmetry, O_h (m-3m)  point group:

     e(  1 -  1) =     -5.68715  eV     1   --> A_1g G_1   G_1+
     e(  2 -  4) =      6.31057  eV     3   --> T_2g G_25' G_5+
     e(  5 -  7) =      8.88393  eV     3   --> T_1u G_15  G_4-
     e(  8 -  8) =      9.87461  eV     1   --> A_2u G_2'  G_2-

 **************************************************************************

 **************************************************************************

                    xk=(   0.00000,   0.00000,   0.09091  )

     point group C_4v (4mm) 
     there are  5 classes
     the character table:

       E     2C4   C2    2s_v  2s_d 
A_1    1.00  1.00  1.00  1.00  1.00
A_2    1.00  1.00  1.00 -1.00 -1.00
B_1    1.00 -1.00  1.00  1.00 -1.00
B_2    1.00 -1.00  1.00 -1.00  1.00
E      2.00  0.00 -2.00  0.00  0.00

     the symmetry operations in each class and the name of the first element:

     E        1
                                                                 
     2C4      3    4
                                                                 
     C2       2
                                                                 
     2s_v     5    6
                                                                 
     2s_d     7    8
                                                                 

     Band symmetry, C_4v (4mm)  point group:

     e(  1 -  1) =     -5.66243  eV     1   --> A_1  G_1 D_1   
     e(  2 -  2) =      6.09168  eV     1   --> B_2  G_4 D_2'  
     e(  3 -  4) =      6.14928  eV     2   --> E    G_5 D_5   
     e(  5 -  5) =      8.79214  eV     1   --> A_1  G_1 D_1   
     e(  6 -  7) =      9.08418  eV     2   --> E    G_5 D_5   
     e(  8 -  8) =     10.08353  eV     1   --> B_2  G_4 D_2'  

 **************************************************************************

 **************************************************************************

                    xk=(   0.00000,   0.00000,   0.18182  )

     Band symmetry, C_4v (4mm)  point group:

     e(  1 -  1) =     -5.55282  eV     1   --> A_1  G_1 D_1   
     e(  2 -  2) =      5.55092  eV     1   --> B_2  G_4 D_2'  
     e(  3 -  4) =      5.78506  eV     2   --> E    G_5 D_5   
     e(  5 -  5) =      8.55137  eV     1   --> A_1  G_1 D_1   
     e(  6 -  7) =      9.58420  eV     2   --> E    G_5 D_5   
     e(  8 -  8) =     10.54577  eV     1   --> B_2  G_4 D_2'  

 **************************************************************************

 **************************************************************************

                    xk=(   0.00000,   0.00000,   0.27273  )

     Band symmetry, C_4v (4mm)  point group:

     e(  1 -  1) =     -5.37010  eV     1   --> A_1  G_1 D_1   
     e(  2 -  2) =      4.85426  eV     1   --> B_2  G_4 D_2'  
     e(  3 -  4) =      5.35123  eV     2   --> E    G_5 D_5   
     e(  5 -  5) =      8.22982  eV     1   --> A_1  G_1 D_1   
     e(  6 -  7) =     10.24208  eV     2   --> E    G_5 D_5   
     e(  8 -  8) =     10.84043  eV     1   --> B_2  G_4 D_2'  

 **************************************************************************

 **************************************************************************

                    xk=(   0.00000,   0.00000,   0.36364  )

     Band symmetry, C_4v (4mm)  point group:

     e(  1 -  1) =     -5.12702  eV     1   --> A_1  G_1 D_1   
     e(  2 -  2) =      4.07697  eV     1   --> B_2  G_4 D_2'  
     e(  3 -  4) =      4.91724  eV     2   --> E    G_5 D_5   
     e(  5 -  5) =      7.87422  eV     1   --> A_1  G_1 D_1   
     e(  6 -  6) =     10.47622  eV     1   --> B_2  G_4 D_2'  
     e(  7 -  8) =     10.96649  eV     2   --> E    G_5 D_5   

 **************************************************************************

 **************************************************************************

                    xk=(   0.00000,   0.00000,   0.45455  )

     Band symmetry, C_4v (4mm)  point group:

     e(  1 -  1) =     -4.79476  eV     1   --> A_1  G_1 D_1   
     e(  2 -  2) =      3.27764  eV     1   --> B_2  G_4 D_2'  
     e(  3 -  4) =      4.51948  eV     2   --> E    G_5 D_5   
     e(  5 -  5) =      7.55232  eV     1   --> A_1  G_1 D_1   
     e(  6 -  6) =      9.80056  eV     1   --> B_2  G_4 D_2'  
     e(  7 -  8) =     11.75663  eV     2   --> E    G_5 D_5   

 **************************************************************************

 **************************************************************************

                    xk=(   0.00000,   0.00000,   0.54545  )

     Band symmetry, C_4v (4mm)  point group:

     e(  1 -  1) =     -4.40124  eV     1   --> A_1  G_1 D_1   
     e(  2 -  2) =      2.46498  eV     1   --> B_2  G_4 D_2'  
     e(  3 -  4) =      4.17027  eV     2   --> E    G_5 D_5   
     e(  5 -  5) =      7.27386  eV     1   --> A_1  G_1 D_1   
     e(  6 -  6) =      9.09156  eV     1   --> B_2  G_4 D_2'  
     e(  7 -  8) =     12.57506  eV     2   --> E    G_5 D_5   

 **************************************************************************

 **************************************************************************

                    xk=(   0.00000,   0.00000,   0.63636  )

     Band symmetry, C_4v (4mm)  point group:

     e(  1 -  1) =     -3.95401  eV     1   --> A_1  G_1 D_1   
     e(  2 -  2) =      1.59945  eV     1   --> B_2  G_4 D_2'  
     e(  3 -  4) =      3.87645  eV     2   --> E    G_5 D_5   
     e(  5 -  5) =      7.04342  eV     1   --> A_1  G_1 D_1   
     e(  6 -  6) =      8.44982  eV     1   --> B_2  G_4 D_2'  
     e(  7 -  8) =     13.36554  eV     2   --> E    G_5 D_5   

 **************************************************************************

 **************************************************************************

                    xk=(   0.00000,   0.00000,   0.72727  )

     Band symmetry, C_4v (4mm)  point group:

     e(  1 -  1) =     -3.42284  eV     1   --> A_1  G_1 D_1   
     e(  2 -  2) =      0.78851  eV     1   --> B_2  G_4 D_2'  
     e(  3 -  4) =      3.64782  eV     2   --> E    G_5 D_5   
     e(  5 -  5) =      6.89888  eV     1   --> A_1  G_1 D_1   
     e(  6 -  6) =      7.91458  eV     1   --> B_2  G_4 D_2'  
     e(  7 -  8) =     14.22101  eV     2   --> E    G_5 D_5   

 **************************************************************************

 **************************************************************************

                    xk=(   0.00000,   0.00000,   0.81818  )

     Band symmetry, C_4v (4mm)  point group:

     e(  1 -  1) =     -2.84746  eV     1   --> A_1  G_1 D_1   
     e(  2 -  2) =     -0.00626  eV     1   --> B_2  G_4 D_2'  
     e(  3 -  4) =      3.48062  eV     2   --> E    G_5 D_5   
     e(  5 -  5) =      6.80815  eV     1   --> A_1  G_1 D_1   
     e(  6 -  6) =      7.48716  eV     1   --> B_2  G_4 D_2'  
     e(  7 -  8) =     15.08573  eV     2   --> E    G_5 D_5   

 **************************************************************************

 **************************************************************************

                    xk=(   0.00000,   0.00000,   0.90909  )

     Band symmetry, C_4v (4mm)  point group:

     e(  1 -  1) =     -2.19492  eV     1   --> A_1  G_1 D_1   
     e(  2 -  2) =     -0.77413  eV     1   --> B_2  G_4 D_2'  
     e(  3 -  4) =      3.38111  eV     2   --> E    G_5 D_5   
     e(  5 -  5) =      6.83961  eV     1   --> A_1  G_1 D_1   
     e(  6 -  6) =      7.16864  eV     1   --> B_2  G_4 D_2'  
     e(  7 -  8) =     15.93501  eV     2   --> E    G_5 D_5   

 **************************************************************************

 **************************************************************************

                    xk=(   0.00000,   0.00000,   1.00000  )

     zone border point and non-symmorphic group 
     symmetry decomposition not available

 **************************************************************************

 **************************************************************************

                    xk=(  -0.00000,   0.08333,   1.00000  )

     zone border point and non-symmorphic group 
     symmetry decomposition not available

 **************************************************************************

 **************************************************************************

                    xk=(   0.00000,   0.16667,   1.00000  )

     zone border point and non-symmorphic group 
     symmetry decomposition not available

 **************************************************************************

 **************************************************************************

                    xk=(   0.00000,   0.25000,   1.00000  )

     zone border point and non-symmorphic group 
     symmetry decomposition not available

 **************************************************************************

 **************************************************************************

                    xk=(  -0.00000,   0.33333,   1.00000  )

     zone border point and non-symmorphic group 
     symmetry decomposition not available

 **************************************************************************

 **************************************************************************

                    xk=(   0.00000,   0.41667,   1.00000  )

     zone border point and non-symmorphic group 
     symmetry decomposition not available

 **************************************************************************

 **************************************************************************

                    xk=(   0.00000,   0.50000,   1.00000  )

     zone border point and non-symmorphic group 
     symmetry decomposition not available

 **************************************************************************

 **************************************************************************

                    xk=(   0.00000,   0.56250,   0.93750  )

     point group C_s (m)    
     there are  2 classes
     the character table:

       E     s    
A'     1.00  1.00
A''    1.00 -1.00

     the symmetry operations in each class and the name of the first element:

     E        1
                                                                 
     s        2
                                                                 

     Band symmetry, C_s (m)     point group:

     e(  1 -  1) =     -1.58118  eV     1   --> A'             
     e(  2 -  2) =     -1.09520  eV     1   --> A''            
     e(  3 -  3) =      2.10084  eV     1   --> A'             
     e(  4 -  4) =      2.62416  eV     1   --> A''            
     e(  5 -  5) =      9.65480  eV     1   --> A''            
     e(  6 -  6) =     10.62191  eV     1   --> A'             
     e(  7 -  7) =     11.83180  eV     1   --> A'             
     e(  8 -  8) =     11.90185  eV     1   --> A''            

 **************************************************************************

 **************************************************************************

                    xk=(   0.00000,   0.62500,   0.87500  )

     Band symmetry, C_s (m)     point group:

     e(  1 -  1) =     -1.75994  eV     1   --> A'             
     e(  2 -  2) =     -0.97457  eV     1   --> A''            
     e(  3 -  3) =      1.95556  eV     1   --> A'             
     e(  4 -  4) =      3.09649  eV     1   --> A''            
     e(  5 -  5) =      8.60106  eV     1   --> A''            
     e(  6 -  6) =     10.53826  eV     1   --> A'             
     e(  7 -  7) =     12.53263  eV     1   --> A'             
     e(  8 -  8) =     12.79582  eV     1   --> A''            

 **************************************************************************

 **************************************************************************

                    xk=(   0.00000,   0.68750,   0.81250  )

     Band symmetry, C_s (m)     point group:

     e(  1 -  1) =     -1.86195  eV     1   --> A'             
     e(  2 -  2) =     -0.92656  eV     1   --> A''            
     e(  3 -  3) =      1.86652  eV     1   --> A'             
     e(  4 -  4) =      3.56971  eV     1   --> A''            
     e(  5 -  5) =      7.79026  eV     1   --> A''            
     e(  6 -  6) =     10.47131  eV     1   --> A'             
     e(  7 -  7) =     13.28908  eV     1   --> A'             
     e(  8 -  8) =     13.75507  eV     1   --> A''            

 **************************************************************************

 **************************************************************************

                    xk=(   0.00000,   0.75000,   0.75000  )

     point group C_2v (mm2) 
     there are  4 classes
     the character table:

       E     C2    s_v   s_v' 
A_1    1.00  1.00  1.00  1.00
A_2    1.00  1.00 -1.00 -1.00
B_1    1.00 -1.00  1.00 -1.00
B_2    1.00 -1.00 -1.00  1.00

     the symmetry operations in each class and the name of the first element:

     E        1
                                                                 
     C2       2
                                                                 
     s_v      4
                                                                 
     s_v'     3
                                                                 

     Band symmetry, C_2v (mm2)  point group:

     e(  1 -  1) =     -1.89137  eV     1   --> A_1  D_1  S_1  
     e(  2 -  2) =     -0.91441  eV     1   --> B_1  D_3  S_3  
     e(  3 -  3) =      1.83729  eV     1   --> A_1  D_1  S_1  
     e(  4 -  4) =      3.78852  eV     1   --> A_2  D_2  S_2  
     e(  5 -  5) =      7.46080  eV     1   --> B_1  D_3  S_3  
     e(  6 -  6) =     10.44839  eV     1   --> A_1  D_1  S_1  
     e(  7 -  7) =     13.88016  eV     1   --> B_2  D_4  S_4  
     e(  8 -  8) =     14.40650  eV     1   --> A_1  D_1  S_1  

 **************************************************************************

 **************************************************************************

                    xk=(  -0.07143,   0.71429,   0.71429  )

     point group C_s (m)    
     there are  2 classes
     the character table:

       E     s    
A'     1.00  1.00
A''    1.00 -1.00

     the symmetry operations in each class and the name of the first element:

     E        1
                                                                 
     s        2
                                                                 

     Band symmetry, C_s (m)     point group:

     e(  1 -  1) =     -2.16414  eV     1   --> A'             
     e(  2 -  2) =     -0.68400  eV     1   --> A'             
     e(  3 -  3) =      1.83498  eV     1   --> A'             
     e(  4 -  4) =      3.93604  eV     1   --> A''            
     e(  5 -  5) =      7.63749  eV     1   --> A'             
     e(  6 -  6) =     11.21240  eV     1   --> A'             
     e(  7 -  7) =     13.17315  eV     1   --> A''            
     e(  8 -  8) =     13.38500  eV     1   --> A'             

 **************************************************************************

 **************************************************************************

                    xk=(  -0.14286,   0.67857,   0.67857  )

     Band symmetry, C_s (m)     point group:

     e(  1 -  1) =     -2.47991  eV     1   --> A'             
     e(  2 -  2) =     -0.53831  eV     1   --> A'             
     e(  3 -  3) =      2.12865  eV     1   --> A'             
     e(  4 -  4) =      4.12931  eV     1   --> A''            
     e(  5 -  5) =      7.88938  eV     1   --> A'             
     e(  6 -  6) =     11.89862  eV     1   --> A'             
     e(  7 -  7) =     12.30068  eV     1   --> A''            
     e(  8 -  8) =     12.48737  eV     1   --> A'             

 **************************************************************************

 **************************************************************************

                    xk=(  -0.21429,   0.64286,   0.64286  )

     Band symmetry, C_s (m)     point group:

     e(  1 -  1) =     -2.76791  eV     1   --> A'             
     e(  2 -  2) =     -0.53860  eV     1   --> A'             
     e(  3 -  3) =      2.68158  eV     1   --> A'             
     e(  4 -  4) =      4.35524  eV     1   --> A''            
     e(  5 -  5) =      8.17738  eV     1   --> A'             
     e(  6 -  6) =     11.22099  eV     1   --> A'             
     e(  7 -  7) =     11.49088  eV     1   --> A''            
     e(  8 -  8) =     13.04682  eV     1   --> A'             

 **************************************************************************

 **************************************************************************

                    xk=(  -0.28571,   0.60714,   0.60714  )

     Band symmetry, C_s (m)     point group:

     e(  1 -  1) =     -3.00090  eV     1   --> A'             
     e(  2 -  2) =     -0.60950  eV     1   --> A'             
     e(  3 -  3) =      3.38096  eV     1   --> A'             
     e(  4 -  4) =      4.59722  eV     1   --> A''            
     e(  5 -  5) =      8.46495  eV     1   --> A'             
     e(  6 -  6) =     10.32745  eV     1   --> A'             
     e(  7 -  7) =     10.77234  eV     1   --> A''            
     e(  8 -  8) =     13.90383  eV     1   --> A'             

 **************************************************************************

 **************************************************************************

                    xk=(  -0.35714,   0.57143,   0.57143  )

     Band symmetry, C_s (m)     point group:

     e(  1 -  1) =     -3.16202  eV     1   --> A'             
     e(  2 -  2) =     -0.68972  eV     1   --> A'             
     e(  3 -  3) =      4.11994  eV     1   --> A'             
     e(  4 -  4) =      4.82410  eV     1   --> A''            
     e(  5 -  5) =      8.53448  eV     1   --> A'             
     e(  6 -  6) =      9.71545  eV     1   --> A'             
     e(  7 -  7) =     10.20406  eV     1   --> A''            
     e(  8 -  8) =     14.31725  eV     1   --> A'             

 **************************************************************************

 **************************************************************************

                    xk=(  -0.42857,   0.53571,   0.53571  )

     Band symmetry, C_s (m)     point group:

     e(  1 -  1) =     -3.24766  eV     1   --> A'             
     e(  2 -  2) =     -0.75329  eV     1   --> A'             
     e(  3 -  3) =      4.76637  eV     1   --> A'             
     e(  4 -  4) =      4.99318  eV     1   --> A''            
     e(  5 -  5) =      8.16162  eV     1   --> A'             
     e(  6 -  6) =      9.63478  eV     1   --> A'             
     e(  7 -  7) =      9.81973  eV     1   --> A''            
     e(  8 -  8) =     14.04104  eV     1   --> A'             

 **************************************************************************

 **************************************************************************

                    xk=(  -0.50000,   0.50000,   0.50000  )

     zone border point and non-symmorphic group 
     symmetry decomposition not available

 **************************************************************************

     BANDS        :      0.21s CPU      0.23s WALL


   This run was terminated on:  12:17:16  17Apr2021            

=------------------------------------------------------------------------------=
   JOB DONE.
=------------------------------------------------------------------------------=
