### Running on host: cl

     Program PWSCF v.6.7MaX starts on 17Apr2021 at 12:17:15 

     This program is part of the open-source Quantum ESPRESSO suite
     for quantum simulation of materials; please cite
         "P. Giannozzi et al., J. Phys.:Condens. Matter 21 395502 (2009);
         "P. Giannozzi et al., J. Phys.:Condens. Matter 29 465901 (2017);
          URL http://www.quantum-espresso.org", 
     in publications or presentations arising from this work. More details at
     http://www.quantum-espresso.org/quote

     Parallel version (MPI), running on     2 processors

     MPI processes distributed on     1 nodes
     R & G space division:  proc/nbgrp/npool/nimage =       2
     Reading input from pw.Si.bands.in

     Current dimensions of program PWSCF are:
     Max number of different atomic species (ntypx) = 10
     Max number of k-points (npk) =  40000
     Max angular momentum in pseudopotentials (lmaxx) =  3

     Atomic positions and unit cell read from directory:
     /tmp/QE/silicon.save/


     Subspace diagonalization in iterative solution of the eigenvalue problem:
     a serial algorithm will be used


     Parallelization info
     --------------------
     sticks:   dense  smooth     PW     G-vecs:    dense   smooth      PW
     Min          81      81     30                  728      728     165
     Max          82      82     31                  731      731     166
     Sum         163     163     61                 1459     1459     331



     bravais-lattice index     =            2
     lattice parameter (alat)  =      10.2000  a.u.
     unit-cell volume          =     265.3020 (a.u.)^3
     number of atoms/cell      =            2
     number of atomic types    =            1
     number of electrons       =         8.00
     number of Kohn-Sham states=            8
     kinetic-energy cutoff     =      12.0000  Ry
     charge density cutoff     =      48.0000  Ry
     Exchange-correlation= SLA  PZ   NOGX NOGC
                           (   1   1   0   0   0   0   0)

     celldm(1)=  10.200000  celldm(2)=   0.000000  celldm(3)=   0.000000
     celldm(4)=   0.000000  celldm(5)=   0.000000  celldm(6)=   0.000000

     crystal axes: (cart. coord. in units of alat)
               a(1) = (  -0.500000   0.000000   0.500000 )  
               a(2) = (   0.000000   0.500000   0.500000 )  
               a(3) = (  -0.500000   0.500000   0.000000 )  

     reciprocal axes: (cart. coord. in units 2 pi/alat)
               b(1) = ( -1.000000 -1.000000  1.000000 )  
               b(2) = (  1.000000  1.000000  1.000000 )  
               b(3) = ( -1.000000  1.000000 -1.000000 )  


     PseudoPot. # 1 for Si read from file:
     /home/test/QE-2021/pseudo/Si.pz-vbc.UPF
     MD5 check sum: a974d1b8727157e37210f3f86afb6210
     Pseudo is Norm-conserving, Zval =  4.0
     Generated by new atomic code, or converted to UPF format
     Using radial grid of  431 points,  2 beta functions with: 
                l(1) =   0
                l(2) =   1

     atomic species   valence    mass     pseudopotential
        Si             4.00    28.08600     Si( 1.00)

     48 Sym. Ops., with inversion, found (24 have fractional translation)



   Cartesian axes

     site n.     atom                  positions (alat units)
         1           Si  tau(   1) = (   0.0000000   0.0000000   0.0000000  )
         2           Si  tau(   2) = (   0.2500000   0.2500000   0.2500000  )

     number of k points=    39
                       cart. coord. in units 2pi/alat
        k(    1) = (  -0.5000000   0.5000000   0.5000000), wk =   0.0512821
        k(    2) = (  -0.4500000   0.4500000   0.4500000), wk =   0.0512821
        k(    3) = (  -0.4000000   0.4000000   0.4000000), wk =   0.0512821
        k(    4) = (  -0.3500000   0.3500000   0.3500000), wk =   0.0512821
        k(    5) = (  -0.3000000   0.3000000   0.3000000), wk =   0.0512821
        k(    6) = (  -0.2500000   0.2500000   0.2500000), wk =   0.0512821
        k(    7) = (  -0.2000000   0.2000000   0.2000000), wk =   0.0512821
        k(    8) = (  -0.1500000   0.1500000   0.1500000), wk =   0.0512821
        k(    9) = (  -0.1000000   0.1000000   0.1000000), wk =   0.0512821
        k(   10) = (  -0.0500000   0.0500000   0.0500000), wk =   0.0512821
        k(   11) = (   0.0000000   0.0000000   0.0000000), wk =   0.0512821
        k(   12) = (   0.0000000   0.0000000   0.0909091), wk =   0.0512821
        k(   13) = (   0.0000000   0.0000000   0.1818182), wk =   0.0512821
        k(   14) = (   0.0000000   0.0000000   0.2727273), wk =   0.0512821
        k(   15) = (   0.0000000   0.0000000   0.3636364), wk =   0.0512821
        k(   16) = (   0.0000000   0.0000000   0.4545455), wk =   0.0512821
        k(   17) = (   0.0000000   0.0000000   0.5454545), wk =   0.0512821
        k(   18) = (   0.0000000   0.0000000   0.6363636), wk =   0.0512821
        k(   19) = (   0.0000000   0.0000000   0.7272727), wk =   0.0512821
        k(   20) = (   0.0000000   0.0000000   0.8181818), wk =   0.0512821
        k(   21) = (   0.0000000   0.0000000   0.9090909), wk =   0.0512821
        k(   22) = (   0.0000000   0.0000000   1.0000000), wk =   0.0512821
        k(   23) = (  -0.0000000   0.0833333   1.0000000), wk =   0.0512821
        k(   24) = (   0.0000000   0.1666667   1.0000000), wk =   0.0512821
        k(   25) = (   0.0000000   0.2500000   1.0000000), wk =   0.0512821
        k(   26) = (  -0.0000000   0.3333333   1.0000000), wk =   0.0512821
        k(   27) = (   0.0000000   0.4166667   1.0000000), wk =   0.0512821
        k(   28) = (   0.0000000   0.5000000   1.0000000), wk =   0.0512821
        k(   29) = (   0.0000000   0.5625000   0.9375000), wk =   0.0512821
        k(   30) = (   0.0000000   0.6250000   0.8750000), wk =   0.0512821
        k(   31) = (   0.0000000   0.6875000   0.8125000), wk =   0.0512821
        k(   32) = (   0.0000000   0.7500000   0.7500000), wk =   0.0512821
        k(   33) = (  -0.0714286   0.7142857   0.7142857), wk =   0.0512821
        k(   34) = (  -0.1428571   0.6785714   0.6785714), wk =   0.0512821
        k(   35) = (  -0.2142857   0.6428571   0.6428571), wk =   0.0512821
        k(   36) = (  -0.2857143   0.6071429   0.6071429), wk =   0.0512821
        k(   37) = (  -0.3571429   0.5714286   0.5714286), wk =   0.0512821
        k(   38) = (  -0.4285714   0.5357143   0.5357143), wk =   0.0512821
        k(   39) = (  -0.5000000   0.5000000   0.5000000), wk =   0.0512821

     Dense  grid:     1459 G-vectors     FFT dimensions: (  16,  16,  16)

     Estimated max dynamical RAM per process >       0.37 MB

     Estimated total dynamical RAM >       0.73 MB

     The potential is recalculated from file :
     /tmp/QE/silicon.save/charge-density

     Starting wfcs are    8 randomized atomic wfcs

     Band Structure Calculation
     Davidson diagonalization with overlap

     ethr =  1.25E-08,  avg # of iterations = 16.3

     total cpu time spent up to now is        0.6 secs

     End of band structure calculation

          k =-0.5000 0.5000 0.5000 (   180 PWs)   bands (ev):

    -3.2815  -0.7736   5.0566   5.0566   7.9075   9.6867   9.6867  13.8818

          k =-0.4500 0.4500 0.4500 (   180 PWs)   bands (ev):

    -3.4256  -0.5665   5.0752   5.0752   7.9275   9.7077   9.7077  13.9147

          k =-0.4000 0.4000 0.4000 (   183 PWs)   bands (ev):

    -3.7796  -0.0364   5.1311   5.1311   7.9842   9.7714   9.7714  13.9963

          k =-0.3500 0.3500 0.3500 (   183 PWs)   bands (ev):

    -4.1717   0.6639   5.2232   5.2232   8.0815   9.8418   9.8418  14.0776

          k =-0.3000 0.3000 0.3000 (   186 PWs)   bands (ev):

    -4.5579   1.4690   5.3503   5.3503   8.1985   9.8867   9.8867  13.8926

          k =-0.2500 0.2500 0.2500 (   180 PWs)   bands (ev):

    -4.8897   2.3585   5.5133   5.5133   8.3648   9.8603   9.8603  13.2433

          k =-0.2000 0.2000 0.2000 (   178 PWs)   bands (ev):

    -5.1791   3.2903   5.7005   5.7005   8.5812   9.7127   9.7127  12.4149

          k =-0.1500 0.1500 0.1500 (   172 PWs)   bands (ev):

    -5.3986   4.2464   5.9033   5.9033   8.8030   9.4652   9.4652  11.5526

          k =-0.1000 0.1000 0.1000 (   172 PWs)   bands (ev):

    -5.5635   5.1701   6.0986   6.0986   8.9407   9.1876   9.1876  10.7260

          k =-0.0500 0.0500 0.0500 (   172 PWs)   bands (ev):

    -5.6629   5.9548   6.2490   6.2490   8.9568   8.9682   8.9682  10.0926

          k = 0.0000 0.0000 0.0000 (   169 PWs)   bands (ev):

    -5.6871   6.3106   6.3106   6.3106   8.8839   8.8839   8.8839   9.8746

          k = 0.0000 0.0000 0.0909 (   173 PWs)   bands (ev):

    -5.6624   6.0917   6.1493   6.1493   8.7921   9.0842   9.0842  10.0835

          k = 0.0000 0.0000 0.1818 (   173 PWs)   bands (ev):

    -5.5528   5.5509   5.7851   5.7851   8.5514   9.5842   9.5842  10.5458

          k = 0.0000 0.0000 0.2727 (   173 PWs)   bands (ev):

    -5.3701   4.8543   5.3512   5.3512   8.2298  10.2421  10.2421  10.8404

          k = 0.0000 0.0000 0.3636 (   181 PWs)   bands (ev):

    -5.1270   4.0770   4.9172   4.9172   7.8742  10.4762  10.9665  10.9665

          k = 0.0000 0.0000 0.4545 (   178 PWs)   bands (ev):

    -4.7948   3.2776   4.5195   4.5195   7.5523   9.8006  11.7566  11.7566

          k = 0.0000 0.0000 0.5455 (   178 PWs)   bands (ev):

    -4.4012   2.4650   4.1703   4.1703   7.2739   9.0916  12.5751  12.5751

          k = 0.0000 0.0000 0.6364 (   194 PWs)   bands (ev):

    -3.9540   1.5995   3.8764   3.8764   7.0434   8.4498  13.3655  13.3655

          k = 0.0000 0.0000 0.7273 (   190 PWs)   bands (ev):

    -3.4228   0.7885   3.6478   3.6478   6.8989   7.9146  14.2210  14.2210

          k = 0.0000 0.0000 0.8182 (   194 PWs)   bands (ev):

    -2.8475  -0.0063   3.4806   3.4806   6.8082   7.4872  15.0857  15.0857

          k = 0.0000 0.0000 0.9091 (   190 PWs)   bands (ev):

    -2.1949  -0.7741   3.3811   3.3811   6.8396   7.1686  15.9350  15.9350

          k = 0.0000 0.0000 1.0000 (   190 PWs)   bands (ev):

    -1.5064  -1.5064   3.3473   3.3473   6.9543   6.9543  16.4749  16.4749

          k =-0.0000 0.0833 1.0000 (   190 PWs)   bands (ev):

    -1.4950  -1.4950   3.2547   3.2547   7.1242   7.1242  16.1814  16.1814

          k = 0.0000 0.1667 1.0000 (   186 PWs)   bands (ev):

    -1.4546  -1.4546   3.0274   3.0274   7.5868   7.5868  15.3199  15.3199

          k = 0.0000 0.2500 1.0000 (   192 PWs)   bands (ev):

    -1.4226  -1.4226   2.7576   2.7576   8.2407   8.2407  14.2366  14.2366

          k =-0.0000 0.3333 1.0000 (   188 PWs)   bands (ev):

    -1.3693  -1.3693   2.5193   2.5193   9.0387   9.0387  13.1446  13.1446

          k = 0.0000 0.4167 1.0000 (   192 PWs)   bands (ev):

    -1.3421  -1.3421   2.3570   2.3570   9.9069   9.9069  12.0843  12.0843

          k = 0.0000 0.5000 1.0000 (   200 PWs)   bands (ev):

    -1.3424  -1.3424   2.2987   2.2987  10.5762  10.5762  11.3410  11.3410

          k = 0.0000 0.5625 0.9375 (   191 PWs)   bands (ev):

    -1.5812  -1.0952   2.1008   2.6242   9.6548  10.6219  11.8318  11.9018

          k = 0.0000 0.6250 0.8750 (   189 PWs)   bands (ev):

    -1.7599  -0.9746   1.9556   3.0965   8.6011  10.5383  12.5326  12.7958

          k = 0.0000 0.6875 0.8125 (   188 PWs)   bands (ev):

    -1.8619  -0.9266   1.8665   3.5697   7.7903  10.4713  13.2891  13.7551

          k = 0.0000 0.7500 0.7500 (   186 PWs)   bands (ev):

    -1.8914  -0.9144   1.8373   3.7885   7.4608  10.4484  13.8802  14.4065

          k =-0.0714 0.7143 0.7143 (   186 PWs)   bands (ev):

    -2.1641  -0.6840   1.8350   3.9360   7.6375  11.2124  13.1732  13.3850

          k =-0.1429 0.6786 0.6786 (   183 PWs)   bands (ev):

    -2.4799  -0.5383   2.1287   4.1293   7.8894  11.8986  12.3007  12.4874

          k =-0.2143 0.6429 0.6429 (   182 PWs)   bands (ev):

    -2.7679  -0.5386   2.6816   4.3552   8.1774  11.2210  11.4909  13.0468

          k =-0.2857 0.6071 0.6071 (   182 PWs)   bands (ev):

    -3.0009  -0.6095   3.3810   4.5972   8.4649  10.3274  10.7723  13.9038

          k =-0.3571 0.5714 0.5714 (   180 PWs)   bands (ev):

    -3.1620  -0.6897   4.1199   4.8241   8.5345   9.7155  10.2041  14.3173

          k =-0.4286 0.5357 0.5357 (   180 PWs)   bands (ev):

    -3.2477  -0.7533   4.7664   4.9932   8.1616   9.6348   9.8197  14.0410

          k =-0.5000 0.5000 0.5000 (   180 PWs)   bands (ev):

    -3.2815  -0.7736   5.0566   5.0566   7.9075   9.6867   9.6867  13.8818

     Writing output data file /tmp/QE/silicon.save/

     init_run     :      0.01s CPU      0.01s WALL (       1 calls)
     electrons    :      0.61s CPU      0.42s WALL (       1 calls)

     Called by init_run:
     wfcinit      :      0.00s CPU      0.00s WALL (       1 calls)
     potinit      :      0.00s CPU      0.00s WALL (       1 calls)
     hinit0       :      0.00s CPU      0.00s WALL (       1 calls)

     Called by electrons:
     c_bands      :      0.61s CPU      0.42s WALL (       1 calls)
     v_of_rho     :      0.00s CPU      0.00s WALL (       1 calls)

     Called by c_bands:
     init_us_2    :      0.00s CPU      0.00s WALL (      39 calls)
     cegterg      :      0.56s CPU      0.39s WALL (      44 calls)

     Called by *egterg:
     cdiaghg      :      0.13s CPU      0.09s WALL (     676 calls)
     h_psi        :      0.39s CPU      0.27s WALL (     720 calls)
     g_psi        :      0.01s CPU      0.00s WALL (     637 calls)

     Called by h_psi:
     h_psi:calbec :      0.01s CPU      0.01s WALL (     720 calls)
     vloc_psi     :      0.36s CPU      0.25s WALL (     720 calls)
     add_vuspsi   :      0.01s CPU      0.01s WALL (     720 calls)

     General routines
     calbec       :      0.01s CPU      0.01s WALL (     720 calls)
     fft          :      0.00s CPU      0.00s WALL (       3 calls)
     fftw         :      0.29s CPU      0.20s WALL (    7848 calls)
     davcio       :      0.00s CPU      0.00s WALL (      78 calls)

     Parallel routines
     fft_scatt_xy :      0.05s CPU      0.04s WALL (    7851 calls)
     fft_scatt_yz :      0.07s CPU      0.05s WALL (    7851 calls)

     PWSCF        :      0.81s CPU      0.62s WALL


   This run was terminated on:  12:17:16  17Apr2021            

=------------------------------------------------------------------------------=
   JOB DONE.
=------------------------------------------------------------------------------=
