### Running on host: cl

     Program PWSCF v.6.7MaX starts on 17Apr2021 at 12:17:14 

     This program is part of the open-source Quantum ESPRESSO suite
     for quantum simulation of materials; please cite
         "P. Giannozzi et al., J. Phys.:Condens. Matter 21 395502 (2009);
         "P. Giannozzi et al., J. Phys.:Condens. Matter 29 465901 (2017);
          URL http://www.quantum-espresso.org", 
     in publications or presentations arising from this work. More details at
     http://www.quantum-espresso.org/quote

     Parallel version (MPI), running on     2 processors

     MPI processes distributed on     1 nodes
     R & G space division:  proc/nbgrp/npool/nimage =       2
     Reading input from pw.Si.scf.in

     Current dimensions of program PWSCF are:
     Max number of different atomic species (ntypx) = 10
     Max number of k-points (npk) =  40000
     Max angular momentum in pseudopotentials (lmaxx) =  3

     Subspace diagonalization in iterative solution of the eigenvalue problem:
     a serial algorithm will be used


     Parallelization info
     --------------------
     sticks:   dense  smooth     PW     G-vecs:    dense   smooth      PW
     Min          81      81     30                  728      728     165
     Max          82      82     31                  731      731     166
     Sum         163     163     61                 1459     1459     331



     bravais-lattice index     =            2
     lattice parameter (alat)  =      10.2000  a.u.
     unit-cell volume          =     265.3020 (a.u.)^3
     number of atoms/cell      =            2
     number of atomic types    =            1
     number of electrons       =         8.00
     number of Kohn-Sham states=            4
     kinetic-energy cutoff     =      12.0000  Ry
     charge density cutoff     =      48.0000  Ry
     scf convergence threshold =      1.0E-06
     mixing beta               =       0.7000
     number of iterations used =            8  plain     mixing
     Exchange-correlation= SLA  PZ   NOGX NOGC
                           (   1   1   0   0   0   0   0)

     celldm(1)=  10.200000  celldm(2)=   0.000000  celldm(3)=   0.000000
     celldm(4)=   0.000000  celldm(5)=   0.000000  celldm(6)=   0.000000

     crystal axes: (cart. coord. in units of alat)
               a(1) = (  -0.500000   0.000000   0.500000 )  
               a(2) = (   0.000000   0.500000   0.500000 )  
               a(3) = (  -0.500000   0.500000   0.000000 )  

     reciprocal axes: (cart. coord. in units 2 pi/alat)
               b(1) = ( -1.000000 -1.000000  1.000000 )  
               b(2) = (  1.000000  1.000000  1.000000 )  
               b(3) = ( -1.000000  1.000000 -1.000000 )  


     PseudoPot. # 1 for Si read from file:
     /home/test/QE-2021/pseudo/Si.pz-vbc.UPF
     MD5 check sum: a974d1b8727157e37210f3f86afb6210
     Pseudo is Norm-conserving, Zval =  4.0
     Generated by new atomic code, or converted to UPF format
     Using radial grid of  431 points,  2 beta functions with: 
                l(1) =   0
                l(2) =   1

     atomic species   valence    mass     pseudopotential
        Si             4.00    28.08600     Si( 1.00)

     48 Sym. Ops., with inversion, found (24 have fractional translation)



   Cartesian axes

     site n.     atom                  positions (alat units)
         1           Si  tau(   1) = (   0.0000000   0.0000000   0.0000000  )
         2           Si  tau(   2) = (   0.2500000   0.2500000   0.2500000  )

     number of k points=    16
                       cart. coord. in units 2pi/alat
        k(    1) = (   0.0000000   0.0000000   0.0000000), wk =   0.0092593
        k(    2) = (  -0.1666667   0.1666667  -0.1666667), wk =   0.0740741
        k(    3) = (  -0.3333333   0.3333333  -0.3333333), wk =   0.0740741
        k(    4) = (   0.5000000  -0.5000000   0.5000000), wk =   0.0370370
        k(    5) = (   0.0000000   0.3333333   0.0000000), wk =   0.0555556
        k(    6) = (  -0.1666667   0.5000000  -0.1666667), wk =   0.2222222
        k(    7) = (   0.6666667  -0.3333333   0.6666667), wk =   0.2222222
        k(    8) = (   0.5000000  -0.1666667   0.5000000), wk =   0.2222222
        k(    9) = (   0.3333333   0.0000000   0.3333333), wk =   0.1111111
        k(   10) = (   0.0000000   0.6666667   0.0000000), wk =   0.0555556
        k(   11) = (   0.8333333  -0.1666667   0.8333333), wk =   0.2222222
        k(   12) = (   0.6666667  -0.0000000   0.6666667), wk =   0.1111111
        k(   13) = (   0.0000000  -1.0000000   0.0000000), wk =   0.0277778
        k(   14) = (   0.6666667  -0.3333333   1.0000000), wk =   0.2222222
        k(   15) = (   0.5000000  -0.1666667   0.8333333), wk =   0.2222222
        k(   16) = (  -0.3333333  -1.0000000   0.0000000), wk =   0.1111111

     Dense  grid:     1459 G-vectors     FFT dimensions: (  16,  16,  16)

     Estimated max dynamical RAM per process >       0.63 MB

     Estimated total dynamical RAM >       1.25 MB

     Initial potential from superposition of free atoms

     starting charge    7.99901, renormalised to    8.00000
     Starting wfcs are    8 randomized atomic wfcs

     total cpu time spent up to now is        0.1 secs

     Self-consistent Calculation

     iteration #  1     ecut=    12.00 Ry     beta= 0.70
     Davidson diagonalization with overlap
     ethr =  1.00E-02,  avg # of iterations =  2.0

     Threshold (ethr) on eigenvalues was too large:
     Diagonalizing with lowered threshold

     Davidson diagonalization with overlap
     ethr =  6.87E-04,  avg # of iterations =  1.1

     total cpu time spent up to now is        0.1 secs

     total energy              =     -15.80182682 Ry
     estimated scf accuracy    <       0.05970831 Ry

     iteration #  2     ecut=    12.00 Ry     beta= 0.70
     Davidson diagonalization with overlap
     ethr =  7.46E-04,  avg # of iterations =  1.0

     total cpu time spent up to now is        0.1 secs

     total energy              =     -15.80481845 Ry
     estimated scf accuracy    <       0.00217851 Ry

     iteration #  3     ecut=    12.00 Ry     beta= 0.70
     Davidson diagonalization with overlap
     ethr =  2.72E-05,  avg # of iterations =  2.1

     total cpu time spent up to now is        0.2 secs

     total energy              =     -15.80523586 Ry
     estimated scf accuracy    <       0.00006070 Ry

     iteration #  4     ecut=    12.00 Ry     beta= 0.70
     Davidson diagonalization with overlap
     ethr =  7.59E-07,  avg # of iterations =  2.8

     total cpu time spent up to now is        0.2 secs

     End of self-consistent calculation

          k = 0.0000 0.0000 0.0000 (   169 PWs)   bands (ev):

    -5.6895   6.3074   6.3074   6.3074

          k =-0.1667 0.1667-0.1667 (   172 PWs)   bands (ev):

    -5.3316   3.9272   5.8322   5.8322

          k =-0.3333 0.3333-0.3333 (   183 PWs)   bands (ev):

    -4.3041   0.9210   5.2590   5.2590

          k = 0.5000-0.5000 0.5000 (   180 PWs)   bands (ev):

    -3.2842  -0.7757   5.0537   5.0537

          k = 0.0000 0.3333 0.0000 (   173 PWs)   bands (ev):

    -5.2104   4.3457   5.0580   5.0580

          k =-0.1667 0.5000-0.1667 (   182 PWs)   bands (ev):

    -4.3908   1.8705   4.2651   4.4840

          k = 0.6667-0.3333 0.6667 (   182 PWs)   bands (ev):

    -3.1525  -0.3646   3.4620   4.4553

          k = 0.5000-0.1667 0.5000 (   184 PWs)   bands (ev):

    -3.5579   0.2524   3.1735   4.9515

          k = 0.3333 0.0000 0.3333 (   184 PWs)   bands (ev):

    -4.7519   2.5997   3.8032   5.7096

          k = 0.0000 0.6667 0.0000 (   194 PWs)   bands (ev):

    -3.7888   1.3245   3.7900   3.7900

          k = 0.8333-0.1667 0.8333 (   192 PWs)   bands (ev):

    -2.6031  -0.2410   2.5338   3.6515

          k = 0.6667-0.0000 0.6667 (   186 PWs)   bands (ev):

    -2.3703  -0.4642   1.7265   4.1094

          k = 0.0000-1.0000 0.0000 (   190 PWs)   bands (ev):

    -1.5091  -1.5091   3.3449   3.3449

          k = 0.6667-0.3333 1.0000 (   189 PWs)   bands (ev):

    -3.3900   0.6808   2.6062   3.9184

          k = 0.5000-0.1667 0.8333 (   186 PWs)   bands (ev):

    -2.3589  -0.5522   2.1633   3.4294

          k =-0.3333-1.0000 0.0000 (   188 PWs)   bands (ev):

    -1.3720  -1.3720   2.5173   2.5173

     highest occupied level (ev):     6.3074

!    total energy              =     -15.80525579 Ry
     estimated scf accuracy    <       0.00000088 Ry

     The total energy is the sum of the following terms:
     one-electron contribution =       4.83093003 Ry
     hartree contribution      =       1.07078641 Ry
     xc contribution           =      -4.80721366 Ry
     ewald contribution        =     -16.89975858 Ry

     convergence has been achieved in   4 iterations

     Writing output data file /tmp/QE/silicon.save/

     init_run     :      0.04s CPU      0.05s WALL (       1 calls)
     electrons    :      0.07s CPU      0.08s WALL (       1 calls)

     Called by init_run:
     wfcinit      :      0.02s CPU      0.03s WALL (       1 calls)
     potinit      :      0.00s CPU      0.00s WALL (       1 calls)
     hinit0       :      0.01s CPU      0.01s WALL (       1 calls)

     Called by electrons:
     c_bands      :      0.05s CPU      0.06s WALL (       5 calls)
     sum_band     :      0.01s CPU      0.01s WALL (       5 calls)
     v_of_rho     :      0.00s CPU      0.00s WALL (       5 calls)
     mix_rho      :      0.00s CPU      0.00s WALL (       5 calls)

     Called by c_bands:
     init_us_2    :      0.00s CPU      0.00s WALL (     176 calls)
     cegterg      :      0.05s CPU      0.06s WALL (      80 calls)

     Called by *egterg:
     cdiaghg      :      0.01s CPU      0.01s WALL (     207 calls)
     h_psi        :      0.06s CPU      0.07s WALL (     239 calls)
     g_psi        :      0.00s CPU      0.00s WALL (     143 calls)

     Called by h_psi:
     h_psi:calbec :      0.00s CPU      0.00s WALL (     239 calls)
     vloc_psi     :      0.05s CPU      0.06s WALL (     239 calls)
     add_vuspsi   :      0.00s CPU      0.00s WALL (     239 calls)

     General routines
     calbec       :      0.00s CPU      0.00s WALL (     239 calls)
     fft          :      0.00s CPU      0.00s WALL (      15 calls)
     ffts         :      0.00s CPU      0.00s WALL (       5 calls)
     fftw         :      0.05s CPU      0.05s WALL (    2212 calls)

     Parallel routines
     fft_scatt_xy :      0.01s CPU      0.01s WALL (    2232 calls)
     fft_scatt_yz :      0.01s CPU      0.02s WALL (    2232 calls)

     PWSCF        :      0.15s CPU      0.17s WALL


   This run was terminated on:  12:17:14  17Apr2021            

=------------------------------------------------------------------------------=
   JOB DONE.
=------------------------------------------------------------------------------=
