
     Program PWSCF v.6.7GPU starts on 19Apr2021 at 14:26:39 

     This program is part of the open-source Quantum ESPRESSO suite
     for quantum simulation of materials; please cite
         "P. Giannozzi et al., J. Phys.:Condens. Matter 21 395502 (2009);
         "P. Giannozzi et al., J. Phys.:Condens. Matter 29 465901 (2017);
         "P. Giannozzi et al., J. Chem. Phys. 152 154105 (2020);
          URL http://www.quantum-espresso.org", 
     in publications or presentations arising from this work. More details at
     http://www.quantum-espresso.org/quote

     Parallel version (MPI & OpenMP), running on       2 processor cores
     Number of MPI processes:                 2
     Threads/MPI process:                     1

     MPI processes distributed on     1 nodes
     K-points division:     npool     =       2
     Waiting for input...
     Reading input from standard input

     Current dimensions of program PWSCF are:
     Max number of different atomic species (ntypx) = 10
     Max number of k-points (npk) =  40000
     Max angular momentum in pseudopotentials (lmaxx) =  3

     Atomic positions and unit cell read from directory:
     ./tempdir/ni.save/


     Subspace diagonalization in iterative solution of the eigenvalue problem:
     a serial algorithm will be used


     G-vector sticks info
     --------------------
     sticks:   dense  smooth     PW     G-vecs:    dense   smooth      PW
     Sum         559     271     91                 8441     2975     561

     Using Slab Decomposition



     bravais-lattice index     =            2
     lattice parameter (alat)  =       6.6480  a.u.
     unit-cell volume          =      73.4536 (a.u.)^3
     number of atoms/cell      =            1
     number of atomic types    =            1
     number of electrons       =        18.00
     number of Kohn-Sham states=           10
     kinetic-energy cutoff     =      45.0000  Ry
     charge density cutoff     =     360.0000  Ry
     Exchange-correlation=  SLA  PW   PBX  PBC
                           (   1   4   3   4   0   0   0)

     celldm(1)=   6.648000  celldm(2)=   0.000000  celldm(3)=   0.000000
     celldm(4)=   0.000000  celldm(5)=   0.000000  celldm(6)=   0.000000

     crystal axes: (cart. coord. in units of alat)
               a(1) = (  -0.500000   0.000000   0.500000 )  
               a(2) = (   0.000000   0.500000   0.500000 )  
               a(3) = (  -0.500000   0.500000   0.000000 )  

     reciprocal axes: (cart. coord. in units 2 pi/alat)
               b(1) = ( -1.000000 -1.000000  1.000000 )  
               b(2) = (  1.000000  1.000000  1.000000 )  
               b(3) = ( -1.000000  1.000000 -1.000000 )  


     PseudoPot. # 1 for Ni read from file:
     ./pseudo/ni_pbe_v1.4.uspp.F.UPF
     MD5 check sum: 1ee80287db30b12d2bc1f57a5b5d6409
     Pseudo is Ultrasoft + core correction, Zval = 18.0
     Generated by new atomic code, or converted to UPF format
     Using radial grid of  865 points,  6 beta functions with: 
                l(1) =   0
                l(2) =   0
                l(3) =   1
                l(4) =   1
                l(5) =   2
                l(6) =   2
     Q(r) pseudized with 10 coefficients,  rinner =    0.980   0.980   0.980
                                                       0.980   0.980

     atomic species   valence    mass     pseudopotential
        Ni            18.00    58.69300     Ni( 1.00)

     Starting magnetic structure 
     atomic species   magnetization
        Ni           0.700

     48 Sym. Ops., with inversion, found



   Cartesian axes

     site n.     atom                  positions (alat units)
         1           Ni  tau(   1) = (   0.0000000   0.0000000   0.0000000  )

     number of k points=    71  Marzari-Vanderbilt smearing, width (Ry)=  0.0200
                       cart. coord. in units 2pi/alat
        k(    1) = (   0.0000000   0.0000000   0.0000000), wk =   0.0140845
        k(    2) = (  -0.0250000   0.0250000   0.0250000), wk =   0.0140845
        k(    3) = (  -0.0500000   0.0500000   0.0500000), wk =   0.0140845
        k(    4) = (  -0.0750000   0.0750000   0.0750000), wk =   0.0140845
        k(    5) = (  -0.1000000   0.1000000   0.1000000), wk =   0.0140845
        k(    6) = (  -0.1250000   0.1250000   0.1250000), wk =   0.0140845
        k(    7) = (  -0.1500000   0.1500000   0.1500000), wk =   0.0140845
        k(    8) = (  -0.1750000   0.1750000   0.1750000), wk =   0.0140845
        k(    9) = (  -0.2000000   0.2000000   0.2000000), wk =   0.0140845
        k(   10) = (  -0.2250000   0.2250000   0.2250000), wk =   0.0140845
        k(   11) = (  -0.2500000   0.2500000   0.2500000), wk =   0.0140845
        k(   12) = (  -0.2750000   0.2750000   0.2750000), wk =   0.0140845
        k(   13) = (  -0.3000000   0.3000000   0.3000000), wk =   0.0140845
        k(   14) = (  -0.3250000   0.3250000   0.3250000), wk =   0.0140845
        k(   15) = (  -0.3500000   0.3500000   0.3500000), wk =   0.0140845
        k(   16) = (  -0.3750000   0.3750000   0.3750000), wk =   0.0140845
        k(   17) = (  -0.4000000   0.4000000   0.4000000), wk =   0.0140845
        k(   18) = (  -0.4250000   0.4250000   0.4250000), wk =   0.0140845
        k(   19) = (  -0.4500000   0.4500000   0.4500000), wk =   0.0140845
        k(   20) = (  -0.4750000   0.4750000   0.4750000), wk =   0.0140845
        k(   21) = (  -0.5000000   0.5000000   0.5000000), wk =   0.0140845
        k(   22) = (  -0.5500000   0.5000000   0.4500000), wk =   0.0140845
        k(   23) = (  -0.6000000   0.5000000   0.4000000), wk =   0.0140845
        k(   24) = (  -0.6500000   0.5000000   0.3500000), wk =   0.0140845
        k(   25) = (  -0.7000000   0.5000000   0.3000000), wk =   0.0140845
        k(   26) = (  -0.7500000   0.5000000   0.2500000), wk =   0.0140845
        k(   27) = (  -0.8000000   0.5000000   0.2000000), wk =   0.0140845
        k(   28) = (  -0.8500000   0.5000000   0.1500000), wk =   0.0140845
        k(   29) = (  -0.9000000   0.5000000   0.1000000), wk =   0.0140845
        k(   30) = (  -0.9500000   0.5000000   0.0500000), wk =   0.0140845
        k(   31) = (  -1.0000000   0.5000000   0.0000000), wk =   0.0140845
        k(   32) = (  -1.0000000   0.4500000   0.0000000), wk =   0.0140845
        k(   33) = (  -1.0000000   0.4000000   0.0000000), wk =   0.0140845
        k(   34) = (  -1.0000000   0.3500000   0.0000000), wk =   0.0140845
        k(   35) = (  -1.0000000   0.3000000   0.0000000), wk =   0.0140845
        k(   36) = (  -1.0000000   0.2500000   0.0000000), wk =   0.0140845
        k(   37) = (  -1.0000000   0.2000000   0.0000000), wk =   0.0140845
        k(   38) = (  -1.0000000   0.1500000   0.0000000), wk =   0.0140845
        k(   39) = (  -1.0000000   0.1000000   0.0000000), wk =   0.0140845
        k(   40) = (  -1.0000000   0.0500000   0.0000000), wk =   0.0140845
        k(   41) = (  -1.0000000   0.0000000   0.0000000), wk =   0.0140845
        k(   42) = (  -0.9000000   0.0000000   0.0000000), wk =   0.0140845
        k(   43) = (  -0.8000000   0.0000000   0.0000000), wk =   0.0140845
        k(   44) = (  -0.7000000   0.0000000   0.0000000), wk =   0.0140845
        k(   45) = (  -0.6000000   0.0000000   0.0000000), wk =   0.0140845
        k(   46) = (  -0.5000000   0.0000000   0.0000000), wk =   0.0140845
        k(   47) = (  -0.4000000   0.0000000   0.0000000), wk =   0.0140845
        k(   48) = (  -0.3000000   0.0000000   0.0000000), wk =   0.0140845
        k(   49) = (  -0.2000000   0.0000000   0.0000000), wk =   0.0140845
        k(   50) = (  -0.1000000   0.0000000   0.0000000), wk =   0.0140845
        k(   51) = (   0.0000000   0.0000000   0.0000000), wk =   0.0140845
        k(   52) = (  -0.0375000   0.0375000   0.0000000), wk =   0.0140845
        k(   53) = (  -0.0750000   0.0750000   0.0000000), wk =   0.0140845
        k(   54) = (  -0.1125000   0.1125000   0.0000000), wk =   0.0140845
        k(   55) = (  -0.1500000   0.1500000   0.0000000), wk =   0.0140845
        k(   56) = (  -0.1875000   0.1875000   0.0000000), wk =   0.0140845
        k(   57) = (  -0.2250000   0.2250000   0.0000000), wk =   0.0140845
        k(   58) = (  -0.2625000   0.2625000   0.0000000), wk =   0.0140845
        k(   59) = (  -0.3000000   0.3000000   0.0000000), wk =   0.0140845
        k(   60) = (  -0.3375000   0.3375000   0.0000000), wk =   0.0140845
        k(   61) = (  -0.3750000   0.3750000   0.0000000), wk =   0.0140845
        k(   62) = (  -0.4125000   0.4125000   0.0000000), wk =   0.0140845
        k(   63) = (  -0.4500000   0.4500000   0.0000000), wk =   0.0140845
        k(   64) = (  -0.4875000   0.4875000   0.0000000), wk =   0.0140845
        k(   65) = (  -0.5250000   0.5250000   0.0000000), wk =   0.0140845
        k(   66) = (  -0.5625000   0.5625000   0.0000000), wk =   0.0140845
        k(   67) = (  -0.6000000   0.6000000   0.0000000), wk =   0.0140845
        k(   68) = (  -0.6375000   0.6375000   0.0000000), wk =   0.0140845
        k(   69) = (  -0.6750000   0.6750000   0.0000000), wk =   0.0140845
        k(   70) = (  -0.7125000   0.7125000   0.0000000), wk =   0.0140845
        k(   71) = (  -0.7500000   0.7500000   0.0000000), wk =   0.0140845

     Dense  grid:     8441 G-vectors     FFT dimensions: (  30,  30,  30)

     Smooth grid:     2975 G-vectors     FFT dimensions: (  24,  24,  24)

     Estimated max dynamical RAM per process >      18.05 MB

     Estimated total dynamical RAM >      36.11 MB

     Check: negative core charge=   -0.000008
     Generating pointlists ...
     new r_m :   0.2917 (alat units)  1.9391 (a.u.) for type    1

     The potential is recalculated from file :
     ./tempdir/ni.save/charge-density

     Starting wfcs are   13 randomized atomic wfcs

     Band Structure Calculation
     Davidson diagonalization with overlap

     ethr =  5.56E-11,  avg # of iterations = 12.5

     total cpu time spent up to now is        2.3 secs

     End of band structure calculation

     Number of k-points >= 100: set verbosity='high' to print the bands.

     Writing output data file ./tempdir/ni.save/

     init_run     :      0.23s CPU      0.23s WALL (       1 calls)
     electrons    :      1.90s CPU      1.91s WALL (       1 calls)

     Called by init_run:
     wfcinit      :      0.00s CPU      0.00s WALL (       1 calls)
     potinit      :      0.02s CPU      0.02s WALL (       1 calls)
     hinit0       :      0.18s CPU      0.19s WALL (       1 calls)

     Called by electrons:
     c_bands      :      1.90s CPU      1.91s WALL (       1 calls)
     v_of_rho     :      0.02s CPU      0.02s WALL (       1 calls)
     newd         :      0.02s CPU      0.02s WALL (       1 calls)

     Called by c_bands:
     init_us_2    :      0.01s CPU      0.01s WALL (      71 calls)
     cegterg      :      1.60s CPU      1.61s WALL (      72 calls)

     Called by *egterg:
     cdiaghg      :      0.09s CPU      0.09s WALL (     948 calls)
     h_psi        :      1.55s CPU      1.56s WALL (    1020 calls)
     s_psi        :      0.02s CPU      0.02s WALL (    1020 calls)
     g_psi        :      0.01s CPU      0.01s WALL (     877 calls)

     Called by h_psi:
     h_psi:calbec :      0.03s CPU      0.03s WALL (    1020 calls)
     vloc_psi     :      1.50s CPU      1.51s WALL (    1020 calls)
     add_vuspsi   :      0.02s CPU      0.02s WALL (    1020 calls)

     General routines
     calbec       :      0.03s CPU      0.03s WALL (    1020 calls)
     fft          :      0.01s CPU      0.01s WALL (      23 calls)
     ffts         :      0.00s CPU      0.00s WALL (       2 calls)
     fftw         :      1.35s CPU      1.36s WALL (   16744 calls)
     interpolate  :      0.00s CPU      0.00s WALL (       2 calls)
     davcio       :      0.00s CPU      0.00s WALL (     142 calls)

     Parallel routines

     PWSCF        :      2.33s CPU      2.35s WALL


   This run was terminated on:  14:26:41  19Apr2021            

=------------------------------------------------------------------------------=
   JOB DONE.
=------------------------------------------------------------------------------=
