
     Program BANDS v.6.7GPU starts on 19Apr2021 at 14:41:16 

     This program is part of the open-source Quantum ESPRESSO suite
     for quantum simulation of materials; please cite
         "P. Giannozzi et al., J. Phys.:Condens. Matter 21 395502 (2009);
         "P. Giannozzi et al., J. Phys.:Condens. Matter 29 465901 (2017);
         "P. Giannozzi et al., J. Chem. Phys. 152 154105 (2020);
          URL http://www.quantum-espresso.org", 
     in publications or presentations arising from this work. More details at
     http://www.quantum-espresso.org/quote

     Parallel version (MPI & OpenMP), running on       1 processor cores
     Number of MPI processes:                 1
     Threads/MPI process:                     1

     MPI processes distributed on     1 nodes

     Reading xml data from directory:

     ./tempdir/ni.save/

     IMPORTANT: XC functional enforced from input :
     Exchange-correlation= PBE
                           (   1   4   3   4   0   0   0)
     Any further DFT definition will be discarded
     Please, verify this is what you really want


     G-vector sticks info
     --------------------
     sticks:   dense  smooth     PW     G-vecs:    dense   smooth      PW
     Sum         559     271     91                 8441     2975     561

     Using Slab Decomposition


     Check: negative core charge=   -0.000008
     Reading collected, re-writing distributed wavefunctions
     high-symmetry point:  0.0000 0.0000 0.0000   x coordinate   0.0000
     high-symmetry point: -0.5000 0.5000 0.5000   x coordinate   0.8660
     high-symmetry point: -1.0000 0.5000 0.0000   x coordinate   1.5731
     high-symmetry point: -1.0000 0.0000 0.0000   x coordinate   2.0731
     high-symmetry point:  0.0000 0.0000 0.0000   x coordinate   3.0731
     high-symmetry point: -0.7500 0.7500 0.0000   x coordinate   4.1338

     Plottable bands (eV) written to file ni.spinup.band_data.gnu
     Bands written to file ni.spinup.band_data

 **************************************************************************

                    xk=(   0.00000,   0.00000,   0.00000  )

     point group O_h (m-3m) 
     there are 10 classes
     the character table:

       E     8C3   3C2   6C4   6C2'  i     8S6   3s_h  6S4   6s_d 
A_1g   1.00  1.00  1.00  1.00  1.00  1.00  1.00  1.00  1.00  1.00
A_2g   1.00  1.00  1.00 -1.00 -1.00  1.00  1.00  1.00 -1.00 -1.00
E_g    2.00 -1.00  2.00  0.00  0.00  2.00 -1.00  2.00  0.00  0.00
T_1g   3.00  0.00 -1.00  1.00 -1.00  3.00  0.00 -1.00  1.00 -1.00
T_2g   3.00  0.00 -1.00 -1.00  1.00  3.00  0.00 -1.00 -1.00  1.00
A_1u   1.00  1.00  1.00  1.00  1.00 -1.00 -1.00 -1.00 -1.00 -1.00
A_2u   1.00  1.00  1.00 -1.00 -1.00 -1.00 -1.00 -1.00  1.00  1.00
E_u    2.00 -1.00  2.00  0.00  0.00 -2.00  1.00 -2.00  0.00  0.00
T_1u   3.00  0.00 -1.00  1.00 -1.00 -3.00  0.00  1.00 -1.00  1.00
T_2u   3.00  0.00 -1.00 -1.00  1.00 -3.00  0.00  1.00  1.00 -1.00

     the symmetry operations in each class and the name of the first element:

     E        1
                                                                 
     8C3     17   19   20   18   24   21   22   23
                                                                 
     3C2      2    4    3
                                                                 
     6C4      7    8   15   16   12   11
                                                                 
     6C2'     5    6   14   13   10    9
                                                                 
     i       25
                                                                 
     8S6     41   43   44   42   48   45   46   47
                                                                 
     3s_h    26   28   27
                                                                 
     6S4     31   32   39   40   36   35
                                                                 
     6s_d    29   30   38   37   34   33
                                                                 

     Band symmetry, O_h (m-3m)  point group:

     e(  1 -  1) =    -85.89962  eV     1   --> A_1g G_1   G_1+
     e(  2 -  4) =    -46.15608  eV     3   --> T_1u G_15  G_4-
     e(  5 -  5) =      8.73838  eV     1   --> A_1g G_1   G_1+
     e(  6 -  8) =     15.39050  eV     3   --> T_2g G_25' G_5+
     e(  9 - 10) =     16.53532  eV     2   --> E_g  G_12  G_3+

 **************************************************************************

 **************************************************************************

                    xk=(  -0.02500,   0.02500,   0.02500  )

     point group C_3v (3m)  
     there are  3 classes
     the character table:

       E     2C3   3s_v 
A_1    1.00  1.00  1.00
A_2    1.00  1.00 -1.00
E      2.00 -1.00  0.00

     the symmetry operations in each class and the name of the first element:

     E        1
                                                                 
     2C3      2    3
                                                                 
     3s_v     4    5    6
                                                                 

     Band symmetry, C_3v (3m)   point group:

     e(  1 -  1) =    -85.89942  eV     1   --> A_1  L_1       
     e(  2 -  2) =    -46.15742  eV     1   --> A_1  L_1       
     e(  3 -  4) =    -46.15627  eV     2   --> E    L_3       
     e(  5 -  5) =      8.76305  eV     1   --> A_1  L_1       
     e(  6 -  6) =     15.38399  eV     1   --> A_1  L_1       
     e(  7 -  8) =     15.39615  eV     2   --> E    L_3       
     e(  9 - 10) =     16.53284  eV     2   --> E    L_3       

 **************************************************************************

 **************************************************************************

                    xk=(  -0.05000,   0.05000,   0.05000  )

     Band symmetry, C_3v (3m)   point group:

     e(  1 -  1) =    -85.89881  eV     1   --> A_1  L_1       
     e(  2 -  2) =    -46.16143  eV     1   --> A_1  L_1       
     e(  3 -  4) =    -46.15685  eV     2   --> E    L_3       
     e(  5 -  5) =      8.83684  eV     1   --> A_1  L_1       
     e(  6 -  6) =     15.36474  eV     1   --> A_1  L_1       
     e(  7 -  8) =     15.41264  eV     2   --> E    L_3       
     e(  9 - 10) =     16.52563  eV     2   --> E    L_3       

 **************************************************************************

 **************************************************************************

                    xk=(  -0.07500,   0.07500,   0.07500  )

     Band symmetry, C_3v (3m)   point group:

     e(  1 -  1) =    -85.89781  eV     1   --> A_1  L_1       
     e(  2 -  2) =    -46.16798  eV     1   --> A_1  L_1       
     e(  3 -  4) =    -46.15780  eV     2   --> E    L_3       
     e(  5 -  5) =      8.95913  eV     1   --> A_1  L_1       
     e(  6 -  6) =     15.33402  eV     1   --> A_1  L_1       
     e(  7 -  8) =     15.43882  eV     2   --> E    L_3       
     e(  9 - 10) =     16.51512  eV     2   --> E    L_3       

 **************************************************************************

 **************************************************************************

                    xk=(  -0.10000,   0.10000,   0.10000  )

     Band symmetry, C_3v (3m)   point group:

     e(  1 -  1) =    -85.89645  eV     1   --> A_1  L_1       
     e(  2 -  2) =    -46.17692  eV     1   --> A_1  L_1       
     e(  3 -  4) =    -46.15909  eV     2   --> E    L_3       
     e(  5 -  5) =      9.12878  eV     1   --> A_1  L_1       
     e(  6 -  6) =     15.29364  eV     1   --> A_1  L_1       
     e(  7 -  8) =     15.47245  eV     2   --> E    L_3       
     e(  9 - 10) =     16.50330  eV     2   --> E    L_3       

 **************************************************************************

 **************************************************************************

                    xk=(  -0.12500,   0.12500,   0.12500  )

     Band symmetry, C_3v (3m)   point group:

     e(  1 -  1) =    -85.89475  eV     1   --> A_1  L_1       
     e(  2 -  2) =    -46.18802  eV     1   --> A_1  L_1       
     e(  3 -  4) =    -46.16069  eV     2   --> E    L_3       
     e(  5 -  5) =      9.34414  eV     1   --> A_1  L_1       
     e(  6 -  6) =     15.24628  eV     1   --> A_1  L_1       
     e(  7 -  8) =     15.51042  eV     2   --> E    L_3       
     e(  9 - 10) =     16.49328  eV     2   --> E    L_3       

 **************************************************************************

 **************************************************************************

                    xk=(  -0.15000,   0.15000,   0.15000  )

     Band symmetry, C_3v (3m)   point group:

     e(  1 -  1) =    -85.89277  eV     1   --> A_1  L_1       
     e(  2 -  2) =    -46.20100  eV     1   --> A_1  L_1       
     e(  3 -  4) =    -46.16256  eV     2   --> E    L_3       
     e(  5 -  5) =      9.60280  eV     1   --> A_1  L_1       
     e(  6 -  6) =     15.19541  eV     1   --> A_1  L_1       
     e(  7 -  8) =     15.54842  eV     2   --> E    L_3       
     e(  9 - 10) =     16.48905  eV     2   --> E    L_3       

 **************************************************************************

 **************************************************************************

                    xk=(  -0.17500,   0.17500,   0.17500  )

     Band symmetry, C_3v (3m)   point group:

     e(  1 -  1) =    -85.89054  eV     1   --> A_1  L_1       
     e(  2 -  2) =    -46.21554  eV     1   --> A_1  L_1       
     e(  3 -  4) =    -46.16466  eV     2   --> E    L_3       
     e(  5 -  5) =      9.90140  eV     1   --> A_1  L_1       
     e(  6 -  6) =     15.14542  eV     1   --> A_1  L_1       
     e(  7 -  8) =     15.58144  eV     2   --> E    L_3       
     e(  9 - 10) =     16.49528  eV     2   --> E    L_3       

 **************************************************************************

 **************************************************************************

                    xk=(  -0.20000,   0.20000,   0.20000  )

     Band symmetry, C_3v (3m)   point group:

     e(  1 -  1) =    -85.88813  eV     1   --> A_1  L_1       
     e(  2 -  2) =    -46.23127  eV     1   --> A_1  L_1       
     e(  3 -  4) =    -46.16693  eV     2   --> E    L_3       
     e(  5 -  5) =     10.23529  eV     1   --> A_1  L_1       
     e(  6 -  6) =     15.10188  eV     1   --> A_1  L_1       
     e(  7 -  8) =     15.60453  eV     2   --> E    L_3       
     e(  9 - 10) =     16.51639  eV     2   --> E    L_3       

 **************************************************************************

 **************************************************************************

                    xk=(  -0.22500,   0.22500,   0.22500  )

     Band symmetry, C_3v (3m)   point group:

     e(  1 -  1) =    -85.88559  eV     1   --> A_1  L_1       
     e(  2 -  2) =    -46.24780  eV     1   --> A_1  L_1       
     e(  3 -  4) =    -46.16932  eV     2   --> E    L_3       
     e(  5 -  5) =     10.59787  eV     1   --> A_1  L_1       
     e(  6 -  6) =     15.07193  eV     1   --> A_1  L_1       
     e(  7 -  8) =     15.61429  eV     2   --> E    L_3       
     e(  9 - 10) =     16.55506  eV     2   --> E    L_3       

 **************************************************************************

 **************************************************************************

                    xk=(  -0.25000,   0.25000,   0.25000  )

     Band symmetry, C_3v (3m)   point group:

     e(  1 -  1) =    -85.88299  eV     1   --> A_1  L_1       
     e(  2 -  2) =    -46.26474  eV     1   --> A_1  L_1       
     e(  3 -  4) =    -46.17177  eV     2   --> E    L_3       
     e(  5 -  5) =     10.97980  eV     1   --> A_1  L_1       
     e(  6 -  6) =     15.06477  eV     1   --> A_1  L_1       
     e(  7 -  8) =     15.60999  eV     2   --> E    L_3       
     e(  9 - 10) =     16.61108  eV     2   --> E    L_3       

 **************************************************************************

 **************************************************************************

                    xk=(  -0.27500,   0.27500,   0.27500  )

     Band symmetry, C_3v (3m)   point group:

     e(  1 -  1) =    -85.88038  eV     1   --> A_1  L_1       
     e(  2 -  2) =    -46.28164  eV     1   --> A_1  L_1       
     e(  3 -  4) =    -46.17422  eV     2   --> E    L_3       
     e(  5 -  5) =     11.36791  eV     1   --> A_1  L_1       
     e(  6 -  6) =     15.09317  eV     1   --> A_1  L_1       
     e(  7 -  8) =     15.59351  eV     2   --> E    L_3       
     e(  9 - 10) =     16.68151  eV     2   --> E    L_3       

 **************************************************************************

 **************************************************************************

                    xk=(  -0.30000,   0.30000,   0.30000  )

     Band symmetry, C_3v (3m)   point group:

     e(  1 -  1) =    -85.87784  eV     1   --> A_1  L_1       
     e(  2 -  2) =    -46.29810  eV     1   --> A_1  L_1       
     e(  3 -  4) =    -46.17661  eV     2   --> E    L_3       
     e(  5 -  5) =     11.74431  eV     1   --> A_1  L_1       
     e(  6 -  6) =     15.17308  eV     1   --> A_1  L_1       
     e(  7 -  8) =     15.56815  eV     2   --> E    L_3       
     e(  9 - 10) =     16.76159  eV     2   --> E    L_3       

 **************************************************************************

 **************************************************************************

                    xk=(  -0.32500,   0.32500,   0.32500  )

     Band symmetry, C_3v (3m)   point group:

     e(  1 -  1) =    -85.87542  eV     1   --> A_1  L_1       
     e(  2 -  2) =    -46.31371  eV     1   --> A_1  L_1       
     e(  3 -  4) =    -46.17888  eV     2   --> E    L_3       
     e(  5 -  5) =     12.08728  eV     1   --> A_1  L_1       
     e(  6 -  6) =     15.32290  eV     1   --> A_1  L_1       
     e(  7 -  8) =     15.53760  eV     2   --> E    L_3       
     e(  9 - 10) =     16.84617  eV     2   --> E    L_3       

 **************************************************************************

 **************************************************************************

                    xk=(  -0.35000,   0.35000,   0.35000  )

     Band symmetry, C_3v (3m)   point group:

     e(  1 -  1) =    -85.87319  eV     1   --> A_1  L_1       
     e(  2 -  2) =    -46.32811  eV     1   --> A_1  L_1       
     e(  3 -  4) =    -46.18097  eV     2   --> E    L_3       
     e(  5 -  5) =     12.37548  eV     1   --> A_1  L_1       
     e(  6 -  7) =     15.50520  eV     2   --> E    L_3       
     e(  8 -  8) =     15.55773  eV     1   --> A_1  L_1       
     e(  9 - 10) =     16.93022  eV     2   --> E    L_3       

 **************************************************************************

 **************************************************************************

                    xk=(  -0.37500,   0.37500,   0.37500  )

     Band symmetry, C_3v (3m)   point group:

     e(  1 -  1) =    -85.87120  eV     1   --> A_1  L_1       
     e(  2 -  2) =    -46.34094  eV     1   --> A_1  L_1       
     e(  3 -  4) =    -46.18284  eV     2   --> E    L_3       
     e(  5 -  5) =     12.59658  eV     1   --> A_1  L_1       
     e(  6 -  7) =     15.47367  eV     2   --> E    L_3       
     e(  8 -  8) =     15.88047  eV     1   --> A_1  L_1       
     e(  9 - 10) =     17.00931  eV     2   --> E    L_3       

 **************************************************************************

 **************************************************************************

                    xk=(  -0.40000,   0.40000,   0.40000  )

     Band symmetry, C_3v (3m)   point group:

     e(  1 -  1) =    -85.86951  eV     1   --> A_1  L_1       
     e(  2 -  2) =    -46.35188  eV     1   --> A_1  L_1       
     e(  3 -  4) =    -46.18443  eV     2   --> E    L_3       
     e(  5 -  5) =     12.75189  eV     1   --> A_1  L_1       
     e(  6 -  7) =     15.44518  eV     2   --> E    L_3       
     e(  8 -  8) =     16.27343  eV     1   --> A_1  L_1       
     e(  9 - 10) =     17.07947  eV     2   --> E    L_3       

 **************************************************************************

 **************************************************************************

                    xk=(  -0.42500,   0.42500,   0.42500  )

     Band symmetry, C_3v (3m)   point group:

     e(  1 -  1) =    -85.86814  eV     1   --> A_1  L_1       
     e(  2 -  2) =    -46.36068  eV     1   --> A_1  L_1       
     e(  3 -  4) =    -46.18572  eV     2   --> E    L_3       
     e(  5 -  5) =     12.85294  eV     1   --> A_1  L_1       
     e(  6 -  7) =     15.42141  eV     2   --> E    L_3       
     e(  8 -  8) =     16.69791  eV     1   --> A_1  L_1       
     e(  9 - 10) =     17.13755  eV     2   --> E    L_3       

 **************************************************************************

 **************************************************************************

                    xk=(  -0.45000,   0.45000,   0.45000  )

     Band symmetry, C_3v (3m)   point group:

     e(  1 -  1) =    -85.86714  eV     1   --> A_1  L_1       
     e(  2 -  2) =    -46.36712  eV     1   --> A_1  L_1       
     e(  3 -  4) =    -46.18666  eV     2   --> E    L_3       
     e(  5 -  5) =     12.91380  eV     1   --> A_1  L_1       
     e(  6 -  7) =     15.40361  eV     2   --> E    L_3       
     e(  8 -  8) =     17.09575  eV     1   --> A_1  L_1       
     e(  9 - 10) =     17.18097  eV     2   --> E    L_3       

 **************************************************************************

 **************************************************************************

                    xk=(  -0.47500,   0.47500,   0.47500  )

     Band symmetry, C_3v (3m)   point group:

     e(  1 -  1) =    -85.86653  eV     1   --> A_1  L_1       
     e(  2 -  2) =    -46.37105  eV     1   --> A_1  L_1       
     e(  3 -  4) =    -46.18723  eV     2   --> E    L_3       
     e(  5 -  5) =     12.94577  eV     1   --> A_1  L_1       
     e(  6 -  7) =     15.39260  eV     2   --> E    L_3       
     e(  8 -  9) =     17.20781  eV     2   --> E    L_3       
     e( 10 - 10) =     17.38990  eV     1   --> A_1  L_1       

 **************************************************************************

 **************************************************************************

                    xk=(  -0.50000,   0.50000,   0.50000  )

     point group D_3d (-3m) 
     there are  6 classes
     the character table:

       E     2C3   3C2'  i     2S6   3s_d 
A_1g   1.00  1.00  1.00  1.00  1.00  1.00
A_2g   1.00  1.00 -1.00  1.00  1.00 -1.00
E_g    2.00 -1.00  0.00  2.00 -1.00  0.00
A_1u   1.00  1.00  1.00 -1.00 -1.00 -1.00
A_2u   1.00  1.00 -1.00 -1.00 -1.00  1.00
E_u    2.00 -1.00  0.00 -2.00  1.00  0.00

     the symmetry operations in each class and the name of the first element:

     E        1
                                                                 
     2C3      5    6
                                                                 
     3C2'     2    4    3
                                                                 
     i        7
                                                                 
     2S6     11   12
                                                                 
     3s_d     8   10    9
                                                                 

     Band symmetry, D_3d (-3m)  point group:

     e(  1 -  1) =    -85.86632  eV     1   --> A_1g L_1       
     e(  2 -  2) =    -46.37236  eV     1   --> A_2u L_2'      
     e(  3 -  4) =    -46.18742  eV     2   --> E_u  L_3'      
     e(  5 -  5) =     12.95569  eV     1   --> A_1g L_1       
     e(  6 -  7) =     15.38890  eV     2   --> E_g  L_3       
     e(  8 -  9) =     17.21693  eV     2   --> E_g  L_3       
     e( 10 - 10) =     17.50042  eV     1   --> A_2u L_2'      

 **************************************************************************

 **************************************************************************

                    xk=(  -0.55000,   0.50000,   0.45000  )

     point group C_2  (2)   
     there are  2 classes
     the character table:

       E     C2   
A      1.00  1.00
B      1.00 -1.00

     the symmetry operations in each class and the name of the first element:

     E        1
                                                                 
     C2       2
                                                                 

     Band symmetry, C_2  (2)    point group:

     e(  1 -  1) =    -85.86605  eV     1   --> A              
     e(  2 -  2) =    -46.37108  eV     1   --> B              
     e(  3 -  3) =    -46.19017  eV     1   --> A              
     e(  4 -  4) =    -46.18817  eV     1   --> B              
     e(  5 -  5) =     12.99825  eV     1   --> A              
     e(  6 -  6) =     15.35832  eV     1   --> B              
     e(  7 -  7) =     15.41611  eV     1   --> A              
     e(  8 -  8) =     16.77160  eV     1   --> B              
     e(  9 -  9) =     17.21240  eV     1   --> A              
     e( 10 - 10) =     18.01276  eV     1   --> B              

 **************************************************************************

 **************************************************************************

                    xk=(  -0.60000,   0.50000,   0.40000  )

     Band symmetry, C_2  (2)    point group:

     e(  1 -  1) =    -85.86527  eV     1   --> A              
     e(  2 -  2) =    -46.36730  eV     1   --> B              
     e(  3 -  3) =    -46.19814  eV     1   --> A              
     e(  4 -  4) =    -46.19041  eV     1   --> B              
     e(  5 -  5) =     13.12221  eV     1   --> A              
     e(  6 -  6) =     15.26687  eV     1   --> B              
     e(  7 -  7) =     15.49727  eV     1   --> A              
     e(  8 -  8) =     16.28284  eV     1   --> B              
     e(  9 -  9) =     17.19925  eV     1   --> A              
     e( 10 - 10) =     18.70534  eV     1   --> B              

 **************************************************************************

 **************************************************************************

                    xk=(  -0.65000,   0.50000,   0.35000  )

     Band symmetry, C_2  (2)    point group:

     e(  1 -  1) =    -85.86406  eV     1   --> A              
     e(  2 -  2) =    -46.36117  eV     1   --> B              
     e(  3 -  3) =    -46.21054  eV     1   --> A              
     e(  4 -  4) =    -46.19410  eV     1   --> B              
     e(  5 -  5) =     13.31608  eV     1   --> A              
     e(  6 -  6) =     15.11516  eV     1   --> B              
     e(  7 -  7) =     15.62942  eV     1   --> A              
     e(  8 -  8) =     15.87193  eV     1   --> B              
     e(  9 -  9) =     17.17865  eV     1   --> A              
     e( 10 - 10) =     19.46340  eV     1   --> B              

 **************************************************************************

 **************************************************************************

                    xk=(  -0.70000,   0.50000,   0.30000  )

     Band symmetry, C_2  (2)    point group:

     e(  1 -  1) =    -85.86253  eV     1   --> A              
     e(  2 -  2) =    -46.35302  eV     1   --> B              
     e(  3 -  3) =    -46.22615  eV     1   --> A              
     e(  4 -  4) =    -46.19921  eV     1   --> B              
     e(  5 -  5) =     13.56147  eV     1   --> A              
     e(  6 -  6) =     14.91072  eV     1   --> B              
     e(  7 -  7) =     15.54766  eV     1   --> B              
     e(  8 -  8) =     15.80563  eV     1   --> A              
     e(  9 -  9) =     17.15365  eV     1   --> A              
     e( 10 - 10) =     20.28084  eV     1   --> B              

 **************************************************************************

 **************************************************************************

                    xk=(  -0.75000,   0.50000,   0.25000  )

     Band symmetry, C_2  (2)    point group:

     e(  1 -  1) =    -85.86083  eV     1   --> A              
     e(  2 -  2) =    -46.34323  eV     1   --> B              
     e(  3 -  3) =    -46.24343  eV     1   --> A              
     e(  4 -  4) =    -46.20561  eV     1   --> B              
     e(  5 -  5) =     13.83463  eV     1   --> A              
     e(  6 -  6) =     14.67973  eV     1   --> B              
     e(  7 -  7) =     15.29897  eV     1   --> B              
     e(  8 -  8) =     16.01041  eV     1   --> A              
     e(  9 -  9) =     17.13153  eV     1   --> A              
     e( 10 - 10) =     21.15473  eV     1   --> B              

 **************************************************************************

 **************************************************************************

                    xk=(  -0.80000,   0.50000,   0.20000  )

     Band symmetry, C_2  (2)    point group:

     e(  1 -  1) =    -85.85914  eV     1   --> A              
     e(  2 -  2) =    -46.33235  eV     1   --> B              
     e(  3 -  3) =    -46.26069  eV     1   --> A              
     e(  4 -  4) =    -46.21310  eV     1   --> B              
     e(  5 -  5) =     14.10949  eV     1   --> A              
     e(  6 -  6) =     14.45843  eV     1   --> B              
     e(  7 -  7) =     15.10433  eV     1   --> B              
     e(  8 -  8) =     16.21343  eV     1   --> A              
     e(  9 -  9) =     17.12772  eV     1   --> A              
     e( 10 - 10) =     22.08160  eV     1   --> B              

 **************************************************************************

 **************************************************************************

                    xk=(  -0.85000,   0.50000,   0.15000  )

     Band symmetry, C_2  (2)    point group:

     e(  1 -  1) =    -85.85761  eV     1   --> A              
     e(  2 -  2) =    -46.32110  eV     1   --> B              
     e(  3 -  3) =    -46.27623  eV     1   --> A              
     e(  4 -  4) =    -46.22130  eV     1   --> B              
     e(  5 -  5) =     14.27253  eV     1   --> B              
     e(  6 -  6) =     14.36041  eV     1   --> A              
     e(  7 -  7) =     14.95142  eV     1   --> B              
     e(  8 -  8) =     16.36892  eV     1   --> A              
     e(  9 -  9) =     17.16520  eV     1   --> A              
     e( 10 - 10) =     23.05440  eV     1   --> B              

 **************************************************************************

 **************************************************************************

                    xk=(  -0.90000,   0.50000,   0.10000  )

     Band symmetry, C_2  (2)    point group:

     e(  1 -  1) =    -85.85639  eV     1   --> A              
     e(  2 -  2) =    -46.31054  eV     1   --> B              
     e(  3 -  3) =    -46.28855  eV     1   --> A              
     e(  4 -  4) =    -46.22943  eV     1   --> B              
     e(  5 -  5) =     14.13473  eV     1   --> B              
     e(  6 -  6) =     14.56385  eV     1   --> A              
     e(  7 -  7) =     14.83864  eV     1   --> B              
     e(  8 -  8) =     16.44637  eV     1   --> A              
     e(  9 -  9) =     17.24758  eV     1   --> A              
     e( 10 - 10) =     24.05355  eV     1   --> B              

 **************************************************************************

 **************************************************************************

                    xk=(  -0.95000,   0.50000,   0.05000  )

     Band symmetry, C_2  (2)    point group:

     e(  1 -  1) =    -85.85561  eV     1   --> A              
     e(  2 -  2) =    -46.30240  eV     1   --> B              
     e(  3 -  3) =    -46.29646  eV     1   --> A              
     e(  4 -  4) =    -46.23602  eV     1   --> B              
     e(  5 -  5) =     14.05058  eV     1   --> B              
     e(  6 -  6) =     14.69802  eV     1   --> A              
     e(  7 -  7) =     14.76885  eV     1   --> B              
     e(  8 -  8) =     16.46636  eV     1   --> A              
     e(  9 -  9) =     17.33162  eV     1   --> A              
     e( 10 - 10) =     25.00358  eV     1   --> B              

 **************************************************************************

 **************************************************************************

                    xk=(  -1.00000,   0.50000,   0.00000  )

     point group D_2d (-42m)
     there are  5 classes
     the character table:

       E     2S4   C2    2C2'  2s_d 
A_1    1.00  1.00  1.00  1.00  1.00
A_2    1.00  1.00  1.00 -1.00 -1.00
B_1    1.00 -1.00  1.00  1.00 -1.00
B_2    1.00 -1.00  1.00 -1.00  1.00
E      2.00  0.00 -2.00  0.00  0.00

     the symmetry operations in each class and the name of the first element:

     E        1
                                                                 
     2S4      7    8
                                                                 
     C2       2
                                                                 
     2C2'     3    4
                                                                 
     2s_d     5    6
                                                                 

     Band symmetry, D_2d (-42m) point group:

     e(  1 -  1) =    -85.85534  eV     1   --> A_1  X_1  W_1  
     e(  2 -  3) =    -46.29918  eV     2   --> E    X_5  W_3  
     e(  4 -  4) =    -46.23870  eV     1   --> B_2  X_3  W_2  
     e(  5 -  5) =     14.02235  eV     1   --> B_2  X_3  W_2  
     e(  6 -  7) =     14.74521  eV     2   --> E    X_5  W_3  
     e(  8 -  8) =     16.46765  eV     1   --> A_1  X_1  W_1  
     e(  9 -  9) =     17.36613  eV     1   --> B_1  X_2  W_1' 
     e( 10 - 10) =     25.52148  eV     1   -->   ?

 **************************************************************************

 **************************************************************************

                    xk=(  -1.00000,   0.45000,   0.00000  )

     point group C_2v (mm2) 
     there are  4 classes
     the character table:

       E     C2    s_v   s_v' 
A_1    1.00  1.00  1.00  1.00
A_2    1.00  1.00 -1.00 -1.00
B_1    1.00 -1.00  1.00 -1.00
B_2    1.00 -1.00 -1.00  1.00

     the symmetry operations in each class and the name of the first element:

     E        1
                                                                 
     C2       2
                                                                 
     s_v      3
                                                                 
     s_v'     4
                                                                 

     Band symmetry, C_2v (mm2)  point group:

     e(  1 -  1) =    -85.85534  eV     1   --> A_1  D_1  S_1  
     e(  2 -  2) =    -46.30885  eV     1   --> B_1  D_3  S_3  
     e(  3 -  3) =    -46.28951  eV     1   --> B_2  D_4  S_4  
     e(  4 -  4) =    -46.23866  eV     1   --> A_1  D_1  S_1  
     e(  5 -  5) =     13.99284  eV     1   --> A_1  D_1  S_1  
     e(  6 -  6) =     14.52760  eV     1   --> B_2  D_4  S_4  
     e(  7 -  7) =     14.98603  eV     1   --> B_1  D_3  S_3  
     e(  8 -  8) =     16.49465  eV     1   --> A_1  D_1  S_1  
     e(  9 -  9) =     17.36610  eV     1   --> A_2  D_2  S_2  
     e( 10 - 10) =     24.78348  eV     1   --> B_1  D_3  S_3  

 **************************************************************************

 **************************************************************************

                    xk=(  -1.00000,   0.40000,   0.00000  )

     Band symmetry, C_2v (mm2)  point group:

     e(  1 -  1) =    -85.85535  eV     1   --> A_1  D_1  S_1  
     e(  2 -  2) =    -46.31827  eV     1   --> B_1  D_3  S_3  
     e(  3 -  3) =    -46.28008  eV     1   --> B_2  D_4  S_4  
     e(  4 -  4) =    -46.23857  eV     1   --> A_1  D_1  S_1  
     e(  5 -  5) =     13.91085  eV     1   --> A_1  D_1  S_1  
     e(  6 -  6) =     14.33354  eV     1   --> B_2  D_4  S_4  
     e(  7 -  7) =     15.24925  eV     1   --> B_1  D_3  S_3  
     e(  8 -  8) =     16.56920  eV     1   --> A_1  D_1  S_1  
     e(  9 -  9) =     17.36603  eV     1   --> A_2  D_2  S_2  
     e( 10 - 10) =     24.07147  eV     1   --> B_1  D_3  S_3  

 **************************************************************************

 **************************************************************************

                    xk=(  -1.00000,   0.35000,   0.00000  )

     Band symmetry, C_2v (mm2)  point group:

     e(  1 -  1) =    -85.85535  eV     1   --> A_1  D_1  S_1  
     e(  2 -  2) =    -46.32722  eV     1   --> B_1  D_3  S_3  
     e(  3 -  3) =    -46.27110  eV     1   --> B_2  D_4  S_4  
     e(  4 -  4) =    -46.23841  eV     1   --> A_1  D_1  S_1  
     e(  5 -  5) =     13.79235  eV     1   --> A_1  D_1  S_1  
     e(  6 -  6) =     14.16319  eV     1   --> B_2  D_4  S_4  
     e(  7 -  7) =     15.53350  eV     1   --> B_1  D_3  S_3  
     e(  8 -  8) =     16.67600  eV     1   --> A_1  D_1  S_1  
     e(  9 -  9) =     17.36593  eV     1   --> A_2  D_2  S_2  
     e( 10 - 10) =     23.38829  eV     1   --> B_1  D_3  S_3  

 **************************************************************************

 **************************************************************************

                    xk=(  -1.00000,   0.30000,   0.00000  )

     Band symmetry, C_2v (mm2)  point group:

     e(  1 -  1) =    -85.85536  eV     1   --> A_1  D_1  S_1  
     e(  2 -  2) =    -46.33548  eV     1   --> B_1  D_3  S_3  
     e(  3 -  3) =    -46.26282  eV     1   --> B_2  D_4  S_4  
     e(  4 -  4) =    -46.23822  eV     1   --> A_1  D_1  S_1  
     e(  5 -  5) =     13.65561  eV     1   --> A_1  D_1  S_1  
     e(  6 -  6) =     14.01630  eV     1   --> B_2  D_4  S_4  
     e(  7 -  7) =     15.83620  eV     1   --> B_1  D_3  S_3  
     e(  8 -  8) =     16.79760  eV     1   --> A_1  D_1  S_1  
     e(  9 -  9) =     17.36574  eV     1   --> A_2  D_2  S_2  
     e( 10 - 10) =     22.73758  eV     1   --> B_1  D_3  S_3  

 **************************************************************************

 **************************************************************************

                    xk=(  -1.00000,   0.25000,   0.00000  )

     Band symmetry, C_2v (mm2)  point group:

     e(  1 -  1) =    -85.85536  eV     1   --> A_1  D_1  S_1  
     e(  2 -  2) =    -46.34284  eV     1   --> B_1  D_3  S_3  
     e(  3 -  3) =    -46.25544  eV     1   --> B_2  D_4  S_4  
     e(  4 -  4) =    -46.23800  eV     1   --> A_1  D_1  S_1  
     e(  5 -  5) =     13.51679  eV     1   --> A_1  D_1  S_1  
     e(  6 -  6) =     13.89261  eV     1   --> B_2  D_4  S_4  
     e(  7 -  7) =     16.15305  eV     1   --> B_1  D_3  S_3  
     e(  8 -  8) =     16.91926  eV     1   --> A_1  D_1  S_1  
     e(  9 -  9) =     17.36558  eV     1   --> A_2  D_2  S_2  
     e( 10 - 10) =     22.12470  eV     1   --> B_1  D_3  S_3  

 **************************************************************************

 **************************************************************************

                    xk=(  -1.00000,   0.20000,   0.00000  )

     Band symmetry, C_2v (mm2)  point group:

     e(  1 -  1) =    -85.85537  eV     1   --> A_1  D_1  S_1  
     e(  2 -  2) =    -46.34912  eV     1   --> B_1  D_3  S_3  
     e(  3 -  3) =    -46.24913  eV     1   --> B_2  D_4  S_4  
     e(  4 -  4) =    -46.23778  eV     1   --> A_1  D_1  S_1  
     e(  5 -  5) =     13.38856  eV     1   --> A_1  D_1  S_1  
     e(  6 -  6) =     13.79200  eV     1   --> B_2  D_4  S_4  
     e(  7 -  7) =     16.47638  eV     1   --> B_1  D_3  S_3  
     e(  8 -  8) =     17.02981  eV     1   --> A_1  D_1  S_1  
     e(  9 -  9) =     17.36542  eV     1   --> A_2  D_2  S_2  
     e( 10 - 10) =     21.55804  eV     1   --> B_1  D_3  S_3  

 **************************************************************************

 **************************************************************************

                    xk=(  -1.00000,   0.15000,   0.00000  )

     Band symmetry, C_2v (mm2)  point group:

     e(  1 -  1) =    -85.85538  eV     1   --> A_1  D_1  S_1  
     e(  2 -  2) =    -46.35418  eV     1   --> B_1  D_3  S_3  
     e(  3 -  3) =    -46.24405  eV     1   --> B_2  D_4  S_4  
     e(  4 -  4) =    -46.23758  eV     1   --> A_1  D_1  S_1  
     e(  5 -  5) =     13.28023  eV     1   --> A_1  D_1  S_1  
     e(  6 -  6) =     13.71405  eV     1   --> B_2  D_4  S_4  
     e(  7 -  7) =     16.79249  eV     1   --> B_1  D_3  S_3  
     e(  8 -  8) =     17.12175  eV     1   --> A_1  D_1  S_1  
     e(  9 -  9) =     17.36528  eV     1   --> A_2  D_2  S_2  
     e( 10 - 10) =     21.05201  eV     1   --> B_1  D_3  S_3  

 **************************************************************************

 **************************************************************************

                    xk=(  -1.00000,   0.10000,   0.00000  )

     Band symmetry, C_2v (mm2)  point group:

     e(  1 -  1) =    -85.85538  eV     1   --> A_1  D_1  S_1  
     e(  2 -  2) =    -46.35788  eV     1   --> B_1  D_3  S_3  
     e(  3 -  3) =    -46.24033  eV     1   --> B_2  D_4  S_4  
     e(  4 -  4) =    -46.23743  eV     1   --> A_1  D_1  S_1  
     e(  5 -  5) =     13.19851  eV     1   --> A_1  D_1  S_1  
     e(  6 -  6) =     13.65857  eV     1   --> B_2  D_4  S_4  
     e(  7 -  7) =     17.07640  eV     1   --> B_1  D_3  S_3  
     e(  8 -  8) =     17.19024  eV     1   --> A_1  D_1  S_1  
     e(  9 -  9) =     17.36518  eV     1   --> A_2  D_2  S_2  
     e( 10 - 10) =     20.63204  eV     1   --> B_1  D_3  S_3  

 **************************************************************************

 **************************************************************************

                    xk=(  -1.00000,   0.05000,   0.00000  )

     Band symmetry, C_2v (mm2)  point group:

     e(  1 -  1) =    -85.85539  eV     1   --> A_1  D_1  S_1  
     e(  2 -  2) =    -46.36013  eV     1   --> B_1  D_3  S_3  
     e(  3 -  3) =    -46.23807  eV     1   --> B_2  D_4  S_4  
     e(  4 -  4) =    -46.23733  eV     1   --> A_1  D_1  S_1  
     e(  5 -  5) =     13.14780  eV     1   --> A_1  D_1  S_1  
     e(  6 -  6) =     13.62537  eV     1   --> B_2  D_4  S_4  
     e(  7 -  7) =     17.23238  eV     1   --> A_1  D_1  S_1  
     e(  8 -  8) =     17.28561  eV     1   --> B_1  D_3  S_3  
     e(  9 -  9) =     17.36507  eV     1   --> A_2  D_2  S_2  
     e( 10 - 10) =     20.34104  eV     1   --> B_1  D_3  S_3  

 **************************************************************************

 **************************************************************************

                    xk=(  -1.00000,   0.00000,   0.00000  )

     point group D_4h(4/mmm)
     there are 10 classes
     the character table:

       E     2C4   C2    2C2'  2C2'' i     2S4   s_h   2s_v  2s_d 
A_1g   1.00  1.00  1.00  1.00  1.00  1.00  1.00  1.00  1.00  1.00
A_2g   1.00  1.00  1.00 -1.00 -1.00  1.00  1.00  1.00 -1.00 -1.00
B_1g   1.00 -1.00  1.00  1.00 -1.00  1.00 -1.00  1.00  1.00 -1.00
B_2g   1.00 -1.00  1.00 -1.00  1.00  1.00 -1.00  1.00 -1.00  1.00
E_g    2.00  0.00 -2.00  0.00  0.00  2.00  0.00 -2.00  0.00  0.00
A_1u   1.00  1.00  1.00  1.00  1.00 -1.00 -1.00 -1.00 -1.00 -1.00
A_2u   1.00  1.00  1.00 -1.00 -1.00 -1.00 -1.00 -1.00  1.00  1.00
B_1u   1.00 -1.00  1.00  1.00 -1.00 -1.00  1.00 -1.00 -1.00  1.00
B_2u   1.00 -1.00  1.00 -1.00  1.00 -1.00  1.00 -1.00  1.00 -1.00
E_u    2.00  0.00 -2.00  0.00  0.00 -2.00  0.00  2.00  0.00  0.00

     the symmetry operations in each class and the name of the first element:

     E        1
                                                                 
     2C4      7    8
                                                                 
     C2       4
                                                                 
     2C2'     2    3
                                                                 
     2C2''    5    6
                                                                 
     i        9
                                                                 
     2S4     15   16
                                                                 
     s_h     12
                                                                 
     2s_v    10   11
                                                                 
     2s_d    13   14
                                                                 

     Band symmetry, D_4h(4/mmm) point group:

     e(  1 -  1) =    -85.85539  eV     1   --> A_1g X_1  M_1  
     e(  2 -  2) =    -46.36090  eV     1   --> A_2u X_4' M_4' 
     e(  3 -  4) =    -46.23731  eV     2   --> E_u  X_5' M_5' 
     e(  5 -  5) =     13.13061  eV     1   --> A_1g X_1  M_1  
     e(  6 -  6) =     13.61424  eV     1   --> B_2g X_3  M_3  
     e(  7 -  7) =     17.24654  eV     1   --> B_1g X_2  M_2  
     e(  8 -  9) =     17.36503  eV     2   --> E_g  X_5  M_5  
     e( 10 - 10) =     20.23427  eV     1   --> A_2u X_4' M_4' 

 **************************************************************************

 **************************************************************************

                    xk=(  -0.90000,   0.00000,   0.00000  )

     point group C_4v (4mm) 
     there are  5 classes
     the character table:

       E     2C4   C2    2s_v  2s_d 
A_1    1.00  1.00  1.00  1.00  1.00
A_2    1.00  1.00  1.00 -1.00 -1.00
B_1    1.00 -1.00  1.00  1.00 -1.00
B_2    1.00 -1.00  1.00 -1.00  1.00
E      2.00  0.00 -2.00  0.00  0.00

     the symmetry operations in each class and the name of the first element:

     E        1
                                                                 
     2C4      3    4
                                                                 
     C2       2
                                                                 
     2s_v     5    6
                                                                 
     2s_d     7    8
                                                                 

     Band symmetry, C_4v (4mm)  point group:

     e(  1 -  1) =    -85.85647  eV     1   --> A_1  G_1 D_1   
     e(  2 -  2) =    -46.35605  eV     1   --> A_1  G_1 D_1   
     e(  3 -  4) =    -46.23532  eV     2   --> E    G_5 D_5   
     e(  5 -  5) =     13.13914  eV     1   --> A_1  G_1 D_1   
     e(  6 -  6) =     13.65436  eV     1   --> B_2  G_4 D_2'  
     e(  7 -  7) =     17.22858  eV     1   --> B_1  G_3 D_2   
     e(  8 -  9) =     17.29963  eV     2   --> E    G_5 D_5   
     e( 10 - 10) =     19.56530  eV     1   --> A_1  G_1 D_1   

 **************************************************************************

 **************************************************************************

                    xk=(  -0.80000,   0.00000,   0.00000  )

     Band symmetry, C_4v (4mm)  point group:

     e(  1 -  1) =    -85.85960  eV     1   --> A_1  G_1 D_1   
     e(  2 -  2) =    -46.34197  eV     1   --> A_1  G_1 D_1   
     e(  3 -  4) =    -46.22956  eV     2   --> E    G_5 D_5   
     e(  5 -  5) =     13.12954  eV     1   --> A_1  G_1 D_1   
     e(  6 -  6) =     13.77151  eV     1   --> B_2  G_4 D_2'  
     e(  7 -  8) =     17.11679  eV     2   --> E    G_5 D_5   
     e(  9 -  9) =     17.17657  eV     1   --> B_1  G_3 D_2   
     e( 10 - 10) =     18.21365  eV     1   --> A_1  G_1 D_1   

 **************************************************************************

 **************************************************************************

                    xk=(  -0.70000,   0.00000,   0.00000  )

     Band symmetry, C_4v (4mm)  point group:

     e(  1 -  1) =    -85.86449  eV     1   --> A_1  G_1 D_1   
     e(  2 -  2) =    -46.31988  eV     1   --> A_1  G_1 D_1   
     e(  3 -  4) =    -46.22057  eV     2   --> E    G_5 D_5   
     e(  5 -  5) =     12.97653  eV     1   --> A_1  G_1 D_1   
     e(  6 -  6) =     13.95665  eV     1   --> B_2  G_4 D_2'  
     e(  7 -  8) =     16.85091  eV     2   --> E    G_5 D_5   
     e(  9 -  9) =     16.94078  eV     1   --> A_1  G_1 D_1   
     e( 10 - 10) =     17.09611  eV     1   --> B_1  G_3 D_2   

 **************************************************************************

 **************************************************************************

                    xk=(  -0.60000,   0.00000,   0.00000  )

     Band symmetry, C_4v (4mm)  point group:

     e(  1 -  1) =    -85.87065  eV     1   --> A_1  G_1 D_1   
     e(  2 -  2) =    -46.29180  eV     1   --> A_1  G_1 D_1   
     e(  3 -  4) =    -46.20926  eV     2   --> E    G_5 D_5   
     e(  5 -  5) =     12.48068  eV     1   --> A_1  G_1 D_1   
     e(  6 -  6) =     14.19463  eV     1   --> B_2  G_4 D_2'  
     e(  7 -  7) =     16.16056  eV     1   --> A_1  G_1 D_1   
     e(  8 -  9) =     16.54358  eV     2   --> E    G_5 D_5   
     e( 10 - 10) =     16.99550  eV     1   --> B_1  G_3 D_2   

 **************************************************************************

 **************************************************************************

                    xk=(  -0.50000,   0.00000,   0.00000  )

     Band symmetry, C_4v (4mm)  point group:

     e(  1 -  1) =    -85.87749  eV     1   --> A_1  G_1 D_1   
     e(  2 -  2) =    -46.26035  eV     1   --> A_1  G_1 D_1   
     e(  3 -  4) =    -46.19672  eV     2   --> E    G_5 D_5   
     e(  5 -  5) =     11.63978  eV     1   --> A_1  G_1 D_1   
     e(  6 -  6) =     14.46488  eV     1   --> B_2  G_4 D_2'  
     e(  7 -  7) =     15.93331  eV     1   --> A_1  G_1 D_1   
     e(  8 -  9) =     16.23303  eV     2   --> E    G_5 D_5   
     e( 10 - 10) =     16.88505  eV     1   --> B_1  G_3 D_2   

 **************************************************************************

 **************************************************************************

                    xk=(  -0.40000,   0.00000,   0.00000  )

     Band symmetry, C_4v (4mm)  point group:

     e(  1 -  1) =    -85.88432  eV     1   --> A_1  G_1 D_1   
     e(  2 -  2) =    -46.22853  eV     1   --> A_1  G_1 D_1   
     e(  3 -  4) =    -46.18416  eV     2   --> E    G_5 D_5   
     e(  5 -  5) =     10.70898  eV     1   --> A_1  G_1 D_1   
     e(  6 -  6) =     14.74229  eV     1   --> B_2  G_4 D_2'  
     e(  7 -  8) =     15.94902  eV     2   --> E    G_5 D_5   
     e(  9 -  9) =     16.01237  eV     1   --> A_1  G_1 D_1   
     e( 10 - 10) =     16.77573  eV     1   --> B_1  G_3 D_2   

 **************************************************************************

 **************************************************************************

                    xk=(  -0.30000,   0.00000,   0.00000  )

     Band symmetry, C_4v (4mm)  point group:

     e(  1 -  1) =    -85.89049  eV     1   --> A_1  G_1 D_1   
     e(  2 -  2) =    -46.19952  eV     1   --> A_1  G_1 D_1   
     e(  3 -  4) =    -46.17283  eV     2   --> E    G_5 D_5   
     e(  5 -  5) =      9.88467  eV     1   --> A_1  G_1 D_1   
     e(  6 -  6) =     14.99909  eV     1   --> B_2  G_4 D_2'  
     e(  7 -  8) =     15.71211  eV     2   --> E    G_5 D_5   
     e(  9 -  9) =     16.19229  eV     1   --> A_1  G_1 D_1   
     e( 10 - 10) =     16.67818  eV     1   --> B_1  G_3 D_2   

 **************************************************************************

 **************************************************************************

                    xk=(  -0.20000,   0.00000,   0.00000  )

     Band symmetry, C_4v (4mm)  point group:

     e(  1 -  1) =    -85.89539  eV     1   --> A_1  G_1 D_1   
     e(  2 -  2) =    -46.17630  eV     1   --> A_1  G_1 D_1   
     e(  3 -  4) =    -46.16384  eV     2   --> E    G_5 D_5   
     e(  5 -  5) =      9.25786  eV     1   --> A_1  G_1 D_1   
     e(  6 -  6) =     15.20732  eV     1   --> B_2  G_4 D_2'  
     e(  7 -  8) =     15.53552  eV     2   --> E    G_5 D_5   
     e(  9 -  9) =     16.36928  eV     1   --> A_1  G_1 D_1   
     e( 10 - 10) =     16.60129  eV     1   --> B_1  G_3 D_2   

 **************************************************************************

 **************************************************************************

                    xk=(  -0.10000,   0.00000,   0.00000  )

     Band symmetry, C_4v (4mm)  point group:

     e(  1 -  1) =    -85.89854  eV     1   --> A_1  G_1 D_1   
     e(  2 -  2) =    -46.16128  eV     1   --> A_1  G_1 D_1   
     e(  3 -  4) =    -46.15807  eV     2   --> E    G_5 D_5   
     e(  5 -  5) =      8.86960  eV     1   --> A_1  G_1 D_1   
     e(  6 -  6) =     15.34325  eV     1   --> B_2  G_4 D_2'  
     e(  7 -  8) =     15.42700  eV     2   --> E    G_5 D_5   
     e(  9 -  9) =     16.49187  eV     1   --> A_1  G_1 D_1   
     e( 10 - 10) =     16.55217  eV     1   --> B_1  G_3 D_2   

 **************************************************************************

 **************************************************************************

                    xk=(   0.00000,   0.00000,   0.00000  )

     point group O_h (m-3m) 
     there are 10 classes
     the character table:

       E     8C3   3C2   6C4   6C2'  i     8S6   3s_h  6S4   6s_d 
A_1g   1.00  1.00  1.00  1.00  1.00  1.00  1.00  1.00  1.00  1.00
A_2g   1.00  1.00  1.00 -1.00 -1.00  1.00  1.00  1.00 -1.00 -1.00
E_g    2.00 -1.00  2.00  0.00  0.00  2.00 -1.00  2.00  0.00  0.00
T_1g   3.00  0.00 -1.00  1.00 -1.00  3.00  0.00 -1.00  1.00 -1.00
T_2g   3.00  0.00 -1.00 -1.00  1.00  3.00  0.00 -1.00 -1.00  1.00
A_1u   1.00  1.00  1.00  1.00  1.00 -1.00 -1.00 -1.00 -1.00 -1.00
A_2u   1.00  1.00  1.00 -1.00 -1.00 -1.00 -1.00 -1.00  1.00  1.00
E_u    2.00 -1.00  2.00  0.00  0.00 -2.00  1.00 -2.00  0.00  0.00
T_1u   3.00  0.00 -1.00  1.00 -1.00 -3.00  0.00  1.00 -1.00  1.00
T_2u   3.00  0.00 -1.00 -1.00  1.00 -3.00  0.00  1.00  1.00 -1.00

     the symmetry operations in each class and the name of the first element:

     E        1
                                                                 
     8C3     17   19   20   18   24   21   22   23
                                                                 
     3C2      2    4    3
                                                                 
     6C4      7    8   15   16   12   11
                                                                 
     6C2'     5    6   14   13   10    9
                                                                 
     i       25
                                                                 
     8S6     41   43   44   42   48   45   46   47
                                                                 
     3s_h    26   28   27
                                                                 
     6S4     31   32   39   40   36   35
                                                                 
     6s_d    29   30   38   37   34   33
                                                                 

     Band symmetry, O_h (m-3m)  point group:

     e(  1 -  1) =    -85.89962  eV     1   --> A_1g G_1   G_1+
     e(  2 -  4) =    -46.15608  eV     3   --> T_1u G_15  G_4-
     e(  5 -  5) =      8.73838  eV     1   --> A_1g G_1   G_1+
     e(  6 -  8) =     15.39050  eV     3   --> T_2g G_25' G_5+
     e(  9 - 10) =     16.53532  eV     2   --> E_g  G_12  G_3+

 **************************************************************************

 **************************************************************************

                    xk=(  -0.03750,   0.03750,   0.00000  )

     point group C_2v (mm2) 
     there are  4 classes
     the character table:

       E     C2    s_v   s_v' 
A_1    1.00  1.00  1.00  1.00
A_2    1.00  1.00 -1.00 -1.00
B_1    1.00 -1.00  1.00 -1.00
B_2    1.00 -1.00 -1.00  1.00

     the symmetry operations in each class and the name of the first element:

     E        1
                                                                 
     C2       2
                                                                 
     s_v      4
                                                                 
     s_v'     3
                                                                 

     Band symmetry, C_2v (mm2)  point group:

     e(  1 -  1) =    -85.89932  eV     1   --> A_1  D_1  S_1  
     e(  2 -  2) =    -46.15796  eV     1   --> A_1  D_1  S_1  
     e(  3 -  3) =    -46.15664  eV     1   --> B_1  D_3  S_3  
     e(  4 -  4) =    -46.15623  eV     1   --> B_2  D_4  S_4  
     e(  5 -  5) =      8.77537  eV     1   --> A_1  D_1  S_1  
     e(  6 -  6) =     15.37984  eV     1   --> B_1  D_3  S_3  
     e(  7 -  7) =     15.39812  eV     1   --> A_2  D_2  S_2  
     e(  8 -  8) =     15.40069  eV     1   --> A_1  D_1  S_1  
     e(  9 -  9) =     16.52732  eV     1   --> B_2  D_4  S_4  
     e( 10 - 10) =     16.53589  eV     1   --> A_1  D_1  S_1  

 **************************************************************************

 **************************************************************************

                    xk=(  -0.07500,   0.07500,   0.00000  )

     Band symmetry, C_2v (mm2)  point group:

     e(  1 -  1) =    -85.89841  eV     1   --> A_1  D_1  S_1  
     e(  2 -  2) =    -46.16350  eV     1   --> A_1  D_1  S_1  
     e(  3 -  3) =    -46.15834  eV     1   --> B_1  D_3  S_3  
     e(  4 -  4) =    -46.15670  eV     1   --> B_2  D_4  S_4  
     e(  5 -  5) =      8.88589  eV     1   --> A_1  D_1  S_1  
     e(  6 -  6) =     15.34844  eV     1   --> B_1  D_3  S_3  
     e(  7 -  7) =     15.42079  eV     1   --> A_2  D_2  S_2  
     e(  8 -  8) =     15.43009  eV     1   --> A_1  D_1  S_1  
     e(  9 -  9) =     16.50363  eV     1   --> B_2  D_4  S_4  
     e( 10 - 10) =     16.53842  eV     1   --> A_1  D_1  S_1  

 **************************************************************************

 **************************************************************************

                    xk=(  -0.11250,   0.11250,   0.00000  )

     Band symmetry, C_2v (mm2)  point group:

     e(  1 -  1) =    -85.89693  eV     1   --> A_1  D_1  S_1  
     e(  2 -  2) =    -46.17241  eV     1   --> A_1  D_1  S_1  
     e(  3 -  3) =    -46.16115  eV     1   --> B_1  D_3  S_3  
     e(  4 -  4) =    -46.15749  eV     1   --> B_2  D_4  S_4  
     e(  5 -  5) =      9.06856  eV     1   --> A_1  D_1  S_1  
     e(  6 -  6) =     15.29845  eV     1   --> B_1  D_3  S_3  
     e(  7 -  7) =     15.45812  eV     1   --> A_2  D_2  S_2  
     e(  8 -  8) =     15.47479  eV     1   --> A_1  D_1  S_1  
     e(  9 -  9) =     16.46627  eV     1   --> B_2  D_4  S_4  
     e( 10 - 10) =     16.54590  eV     1   --> A_1  D_1  S_1  

 **************************************************************************

 **************************************************************************

                    xk=(  -0.15000,   0.15000,   0.00000  )

     Band symmetry, C_2v (mm2)  point group:

     e(  1 -  1) =    -85.89492  eV     1   --> A_1  D_1  S_1  
     e(  2 -  2) =    -46.18427  eV     1   --> A_1  D_1  S_1  
     e(  3 -  3) =    -46.16507  eV     1   --> B_1  D_3  S_3  
     e(  4 -  4) =    -46.15862  eV     1   --> B_2  D_4  S_4  
     e(  5 -  5) =      9.32102  eV     1   --> A_1  D_1  S_1  
     e(  6 -  6) =     15.23304  eV     1   --> B_1  D_3  S_3  
     e(  7 -  7) =     15.50954  eV     1   --> A_2  D_2  S_2  
     e(  8 -  8) =     15.52785  eV     1   --> A_1  D_1  S_1  
     e(  9 -  9) =     16.41767  eV     1   --> B_2  D_4  S_4  
     e( 10 - 10) =     16.56383  eV     1   --> A_1  D_1  S_1  

 **************************************************************************

 **************************************************************************

                    xk=(  -0.18750,   0.18750,   0.00000  )

     Band symmetry, C_2v (mm2)  point group:

     e(  1 -  1) =    -85.89247  eV     1   --> A_1  D_1  S_1  
     e(  2 -  2) =    -46.19848  eV     1   --> A_1  D_1  S_1  
     e(  3 -  3) =    -46.17009  eV     1   --> B_1  D_3  S_3  
     e(  4 -  4) =    -46.16009  eV     1   --> B_2  D_4  S_4  
     e(  5 -  5) =      9.63978  eV     1   --> A_1  D_1  S_1  
     e(  6 -  6) =     15.15631  eV     1   --> B_1  D_3  S_3  
     e(  7 -  7) =     15.57419  eV     1   --> A_2  D_2  S_2  
     e(  8 -  8) =     15.57871  eV     1   --> A_1  D_1  S_1  
     e(  9 -  9) =     16.36124  eV     1   --> B_2  D_4  S_4  
     e( 10 - 10) =     16.60080  eV     1   --> A_1  D_1  S_1  

 **************************************************************************

 **************************************************************************

                    xk=(  -0.22500,   0.22500,   0.00000  )

     Band symmetry, C_2v (mm2)  point group:

     e(  1 -  1) =    -85.88964  eV     1   --> A_1  D_1  S_1  
     e(  2 -  2) =    -46.21435  eV     1   --> A_1  D_1  S_1  
     e(  3 -  3) =    -46.17618  eV     1   --> B_1  D_3  S_3  
     e(  4 -  4) =    -46.16193  eV     1   --> B_2  D_4  S_4  
     e(  5 -  5) =     10.01995  eV     1   --> A_1  D_1  S_1  
     e(  6 -  6) =     15.07305  eV     1   --> B_1  D_3  S_3  
     e(  7 -  7) =     15.61455  eV     1   --> A_1  D_1  S_1  
     e(  8 -  8) =     15.65090  eV     1   --> A_2  D_2  S_2  
     e(  9 -  9) =     16.30081  eV     1   --> B_2  D_4  S_4  
     e( 10 - 10) =     16.66799  eV     1   --> A_1  D_1  S_1  

 **************************************************************************

 **************************************************************************

                    xk=(  -0.26250,   0.26250,   0.00000  )

     Band symmetry, C_2v (mm2)  point group:

     e(  1 -  1) =    -85.88653  eV     1   --> A_1  D_1  S_1  
     e(  2 -  2) =    -46.23112  eV     1   --> A_1  D_1  S_1  
     e(  3 -  3) =    -46.18330  eV     1   --> B_1  D_3  S_3  
     e(  4 -  4) =    -46.16417  eV     1   --> B_2  D_4  S_4  
     e(  5 -  5) =     10.45491  eV     1   --> A_1  D_1  S_1  
     e(  6 -  6) =     14.98853  eV     1   --> B_1  D_3  S_3  
     e(  7 -  7) =     15.62395  eV     1   --> A_1  D_1  S_1  
     e(  8 -  8) =     15.73846  eV     1   --> A_2  D_2  S_2  
     e(  9 -  9) =     16.24051  eV     1   --> B_2  D_4  S_4  
     e( 10 - 10) =     16.77569  eV     1   --> A_1  D_1  S_1  

 **************************************************************************

 **************************************************************************

                    xk=(  -0.30000,   0.30000,   0.00000  )

     Band symmetry, C_2v (mm2)  point group:

     e(  1 -  1) =    -85.88323  eV     1   --> A_1  D_1  S_1  
     e(  2 -  2) =    -46.24800  eV     1   --> A_1  D_1  S_1  
     e(  3 -  3) =    -46.19140  eV     1   --> B_1  D_3  S_3  
     e(  4 -  4) =    -46.16680  eV     1   --> B_2  D_4  S_4  
     e(  5 -  5) =     10.93566  eV     1   --> A_1  D_1  S_1  
     e(  6 -  6) =     14.90801  eV     1   --> B_1  D_3  S_3  
     e(  7 -  7) =     15.60117  eV     1   --> A_1  D_1  S_1  
     e(  8 -  8) =     15.83536  eV     1   --> A_2  D_2  S_2  
     e(  9 -  9) =     16.18447  eV     1   --> B_2  D_4  S_4  
     e( 10 - 10) =     16.92985  eV     1   --> A_1  D_1  S_1  

 **************************************************************************

 **************************************************************************

                    xk=(  -0.33750,   0.33750,   0.00000  )

     Band symmetry, C_2v (mm2)  point group:

     e(  1 -  1) =    -85.87985  eV     1   --> A_1  D_1  S_1  
     e(  2 -  2) =    -46.26420  eV     1   --> A_1  D_1  S_1  
     e(  3 -  3) =    -46.20044  eV     1   --> B_1  D_3  S_3  
     e(  4 -  4) =    -46.16985  eV     1   --> B_2  D_4  S_4  
     e(  5 -  5) =     11.44995  eV     1   --> A_1  D_1  S_1  
     e(  6 -  6) =     14.83677  eV     1   --> B_1  D_3  S_3  
     e(  7 -  7) =     15.54677  eV     1   --> A_1  D_1  S_1  
     e(  8 -  8) =     15.94001  eV     1   --> A_2  D_2  S_2  
     e(  9 -  9) =     16.13667  eV     1   --> B_2  D_4  S_4  
     e( 10 - 10) =     17.13297  eV     1   --> A_1  D_1  S_1  

 **************************************************************************

 **************************************************************************

                    xk=(  -0.37500,   0.37500,   0.00000  )

     Band symmetry, C_2v (mm2)  point group:

     e(  1 -  1) =    -85.87648  eV     1   --> A_1  D_1  S_1  
     e(  2 -  2) =    -46.27902  eV     1   --> A_1  D_1  S_1  
     e(  3 -  3) =    -46.21032  eV     1   --> B_1  D_3  S_3  
     e(  4 -  4) =    -46.17330  eV     1   --> B_2  D_4  S_4  
     e(  5 -  5) =     11.98113  eV     1   --> A_1  D_1  S_1  
     e(  6 -  6) =     14.77965  eV     1   --> B_1  D_3  S_3  
     e(  7 -  7) =     15.46451  eV     1   --> A_1  D_1  S_1  
     e(  8 -  8) =     16.05067  eV     1   --> A_2  D_2  S_2  
     e(  9 -  9) =     16.10064  eV     1   --> B_2  D_4  S_4  
     e( 10 - 10) =     17.38836  eV     1   --> A_1  D_1  S_1  

 **************************************************************************

 **************************************************************************

                    xk=(  -0.41250,   0.41250,   0.00000  )

     Band symmetry, C_2v (mm2)  point group:

     e(  1 -  1) =    -85.87320  eV     1   --> A_1  D_1  S_1  
     e(  2 -  2) =    -46.29179  eV     1   --> A_1  D_1  S_1  
     e(  3 -  3) =    -46.22095  eV     1   --> B_1  D_3  S_3  
     e(  4 -  4) =    -46.17715  eV     1   --> B_2  D_4  S_4  
     e(  5 -  5) =     12.50711  eV     1   --> A_1  D_1  S_1  
     e(  6 -  6) =     14.74132  eV     1   --> B_1  D_3  S_3  
     e(  7 -  7) =     15.35880  eV     1   --> A_1  D_1  S_1  
     e(  8 -  8) =     16.07953  eV     1   --> B_2  D_4  S_4  
     e(  9 -  9) =     16.16557  eV     1   --> A_2  D_2  S_2  
     e( 10 - 10) =     17.70448  eV     1   --> A_1  D_1  S_1  

 **************************************************************************

 **************************************************************************

                    xk=(  -0.45000,   0.45000,   0.00000  )

     Band symmetry, C_2v (mm2)  point group:

     e(  1 -  1) =    -85.87011  eV     1   --> A_1  D_1  S_1  
     e(  2 -  2) =    -46.30201  eV     1   --> A_1  D_1  S_1  
     e(  3 -  3) =    -46.23222  eV     1   --> B_1  D_3  S_3  
     e(  4 -  4) =    -46.18137  eV     1   --> B_2  D_4  S_4  
     e(  5 -  5) =     13.00025  eV     1   --> A_1  D_1  S_1  
     e(  6 -  6) =     14.72579  eV     1   --> B_1  D_3  S_3  
     e(  7 -  7) =     15.23374  eV     1   --> A_1  D_1  S_1  
     e(  8 -  8) =     16.07570  eV     1   --> B_2  D_4  S_4  
     e(  9 -  9) =     16.28289  eV     1   --> A_2  D_2  S_2  
     e( 10 - 10) =     18.09640  eV     1   --> A_1  D_1  S_1  

 **************************************************************************

 **************************************************************************

                    xk=(  -0.48750,   0.48750,   0.00000  )

     Band symmetry, C_2v (mm2)  point group:

     e(  1 -  1) =    -85.86726  eV     1   --> A_1  D_1  S_1  
     e(  2 -  2) =    -46.30934  eV     1   --> A_1  D_1  S_1  
     e(  3 -  3) =    -46.24398  eV     1   --> B_1  D_3  S_3  
     e(  4 -  4) =    -46.18592  eV     1   --> B_2  D_4  S_4  
     e(  5 -  5) =     13.43016  eV     1   --> A_1  D_1  S_1  
     e(  6 -  6) =     14.73643  eV     1   --> B_1  D_3  S_3  
     e(  7 -  7) =     15.09308  eV     1   --> A_1  D_1  S_1  
     e(  8 -  8) =     16.09081  eV     1   --> B_2  D_4  S_4  
     e(  9 -  9) =     16.40082  eV     1   --> A_2  D_2  S_2  
     e( 10 - 10) =     18.58355  eV     1   --> A_1  D_1  S_1  

 **************************************************************************

 **************************************************************************

                    xk=(  -0.52500,   0.52500,   0.00000  )

     Band symmetry, C_2v (mm2)  point group:

     e(  1 -  1) =    -85.86470  eV     1   --> A_1  D_1  S_1  
     e(  2 -  2) =    -46.31355  eV     1   --> A_1  D_1  S_1  
     e(  3 -  3) =    -46.25610  eV     1   --> B_1  D_3  S_3  
     e(  4 -  4) =    -46.19075  eV     1   --> B_2  D_4  S_4  
     e(  5 -  5) =     13.77043  eV     1   --> A_1  D_1  S_1  
     e(  6 -  6) =     14.77617  eV     1   --> B_1  D_3  S_3  
     e(  7 -  7) =     14.94052  eV     1   --> A_1  D_1  S_1  
     e(  8 -  8) =     16.12592  eV     1   --> B_2  D_4  S_4  
     e(  9 -  9) =     16.51758  eV     1   --> A_2  D_2  S_2  
     e( 10 - 10) =     19.18437  eV     1   --> A_1  D_1  S_1  

 **************************************************************************

 **************************************************************************

                    xk=(  -0.56250,   0.56250,   0.00000  )

     Band symmetry, C_2v (mm2)  point group:

     e(  1 -  1) =    -85.86248  eV     1   --> A_1  D_1  S_1  
     e(  2 -  2) =    -46.31460  eV     1   --> A_1  D_1  S_1  
     e(  3 -  3) =    -46.26838  eV     1   --> B_1  D_3  S_3  
     e(  4 -  4) =    -46.19578  eV     1   --> B_2  D_4  S_4  
     e(  5 -  5) =     14.00585  eV     1   --> A_1  D_1  S_1  
     e(  6 -  6) =     14.78033  eV     1   --> A_1  D_1  S_1  
     e(  7 -  7) =     14.84747  eV     1   --> B_1  D_3  S_3  
     e(  8 -  8) =     16.18107  eV     1   --> B_2  D_4  S_4  
     e(  9 -  9) =     16.63153  eV     1   --> A_2  D_2  S_2  
     e( 10 - 10) =     19.90810  eV     1   --> A_1  D_1  S_1  

 **************************************************************************

 **************************************************************************

                    xk=(  -0.60000,   0.60000,   0.00000  )

     Band symmetry, C_2v (mm2)  point group:

     e(  1 -  1) =    -85.86059  eV     1   --> A_1  D_1  S_1  
     e(  2 -  2) =    -46.31265  eV     1   --> A_1  D_1  S_1  
     e(  3 -  3) =    -46.28066  eV     1   --> B_1  D_3  S_3  
     e(  4 -  4) =    -46.20094  eV     1   --> B_2  D_4  S_4  
     e(  5 -  5) =     14.13466  eV     1   --> A_1  D_1  S_1  
     e(  6 -  6) =     14.61786  eV     1   --> A_1  D_1  S_1  
     e(  7 -  7) =     14.95166  eV     1   --> B_1  D_3  S_3  
     e(  8 -  8) =     16.25537  eV     1   --> B_2  D_4  S_4  
     e(  9 -  9) =     16.74107  eV     1   --> A_2  D_2  S_2  
     e( 10 - 10) =     20.75240  eV     1   --> A_1  D_1  S_1  

 **************************************************************************

 **************************************************************************

                    xk=(  -0.63750,   0.63750,   0.00000  )

     Band symmetry, C_2v (mm2)  point group:

     e(  1 -  1) =    -85.85906  eV     1   --> A_1  D_1  S_1  
     e(  2 -  2) =    -46.30798  eV     1   --> A_1  D_1  S_1  
     e(  3 -  3) =    -46.29273  eV     1   --> B_1  D_3  S_3  
     e(  4 -  4) =    -46.20613  eV     1   --> B_2  D_4  S_4  
     e(  5 -  5) =     14.16364  eV     1   --> A_1  D_1  S_1  
     e(  6 -  6) =     14.46219  eV     1   --> A_1  D_1  S_1  
     e(  7 -  7) =     15.09012  eV     1   --> B_1  D_3  S_3  
     e(  8 -  8) =     16.34721  eV     1   --> B_2  D_4  S_4  
     e(  9 -  9) =     16.84481  eV     1   --> A_2  D_2  S_2  
     e( 10 - 10) =     21.70638  eV     1   --> A_1  D_1  S_1  

 **************************************************************************

 **************************************************************************

                    xk=(  -0.67500,   0.67500,   0.00000  )

     Band symmetry, C_2v (mm2)  point group:

     e(  1 -  1) =    -85.85785  eV     1   --> A_1  D_1  S_1  
     e(  2 -  2) =    -46.30439  eV     1   --> B_1  D_3  S_3  
     e(  3 -  3) =    -46.30103  eV     1   --> A_1  D_1  S_1  
     e(  4 -  4) =    -46.21124  eV     1   --> B_2  D_4  S_4  
     e(  5 -  5) =     14.10205  eV     1   --> A_1  D_1  S_1  
     e(  6 -  6) =     14.32572  eV     1   --> A_1  D_1  S_1  
     e(  7 -  7) =     15.26303  eV     1   --> B_1  D_3  S_3  
     e(  8 -  8) =     16.45379  eV     1   --> B_2  D_4  S_4  
     e(  9 -  9) =     16.94150  eV     1   --> A_2  D_2  S_2  
     e( 10 - 10) =     22.75500  eV     1   --> A_1  D_1  S_1  

 **************************************************************************

 **************************************************************************

                    xk=(  -0.71250,   0.71250,   0.00000  )

     Band symmetry, C_2v (mm2)  point group:

     e(  1 -  1) =    -85.85694  eV     1   --> A_1  D_1  S_1  
     e(  2 -  2) =    -46.31544  eV     1   --> B_1  D_3  S_3  
     e(  3 -  3) =    -46.29235  eV     1   --> A_1  D_1  S_1  
     e(  4 -  4) =    -46.21618  eV     1   --> B_2  D_4  S_4  
     e(  5 -  5) =     13.97499  eV     1   --> A_1  D_1  S_1  
     e(  6 -  6) =     14.20711  eV     1   --> A_1  D_1  S_1  
     e(  7 -  7) =     15.46989  eV     1   --> B_1  D_3  S_3  
     e(  8 -  8) =     16.57149  eV     1   --> B_2  D_4  S_4  
     e(  9 -  9) =     17.03003  eV     1   --> A_2  D_2  S_2  
     e( 10 - 10) =     23.88151  eV     1   --> A_1  D_1  S_1  

 **************************************************************************

 **************************************************************************

                    xk=(  -0.75000,   0.75000,   0.00000  )

     Band symmetry, C_2v (mm2)  point group:

     e(  1 -  1) =    -85.85629  eV     1   --> A_1  D_1  S_1  
     e(  2 -  2) =    -46.32568  eV     1   --> B_1  D_3  S_3  
     e(  3 -  3) =    -46.28260  eV     1   --> A_1  D_1  S_1  
     e(  4 -  4) =    -46.22082  eV     1   --> B_2  D_4  S_4  
     e(  5 -  5) =     13.82038  eV     1   --> A_1  D_1  S_1  
     e(  6 -  6) =     14.09134  eV     1   --> A_1  D_1  S_1  
     e(  7 -  7) =     15.70914  eV     1   --> B_1  D_3  S_3  
     e(  8 -  8) =     16.69555  eV     1   --> B_2  D_4  S_4  
     e(  9 -  9) =     17.10947  eV     1   --> A_2  D_2  S_2  
     e( 10 - 10) =     23.51610  eV     1   --> B_1  D_3  S_3  

 **************************************************************************

     BANDS        :      2.65s CPU      2.67s WALL


   This run was terminated on:  14:41:18  19Apr2021            

=------------------------------------------------------------------------------=
   JOB DONE.
=------------------------------------------------------------------------------=
