
     Program PHONON v.6.4.1 starts on 23Aug2019 at 15: 6:36 

     This program is part of the open-source Quantum ESPRESSO suite
     for quantum simulation of materials; please cite
         "P. Giannozzi et al., J. Phys.:Condens. Matter 21 395502 (2009);
         "P. Giannozzi et al., J. Phys.:Condens. Matter 29 465901 (2017);
          URL http://www.quantum-espresso.org", 
     in publications or presentations arising from this work. More details at
     http://www.quantum-espresso.org/quote

     Parallel version (MPI), running on     8 processors

     MPI processes distributed on     1 nodes
     R & G space division:  proc/nbgrp/npool/nimage =       8
      Title line not specified: using 'default'.
      Title line not specified: using 'default'.
      Title line not specified: using 'default'.
      Title line not specified: using 'default'.
      Title line not specified: using 'default'.
      Title line not specified: using 'default'.
      Title line not specified: using 'default'.
      Title line not specified: using 'default'.

     Reading data from directory:
     /scratch/aurru/bn_scf_less_q/bn.save/

     IMPORTANT: XC functional enforced from input :
     Exchange-correlation      = PBE ( 1  4  3  4 0 0)
     Any further DFT definition will be discarded
     Please, verify this is what you really want

               file N.pbe-n-kjpaw_psl.0.1.UPF: wavefunction(s)  2P renormalized
 
     Parallelization info
     --------------------
     sticks:   dense  smooth     PW     G-vecs:    dense   smooth      PW
     Min          84      42     13                 7714     2732     467
     Max          85      44     14                 7737     2740     478
     Sum         673     349    109                61757    21901    3797
 
 ----2D----2D----2D----2D----2D----2D----2D----2D----2D----2D----2D----2D
  The code is running with the 2D cutoff
  Please refer to:
  Sohier, T., Calandra, M., & Mauri, F. (2017), 
  Density functional perturbation theory for gated two-dimensional heterostructu
 res:
  Theoretical developments and application to flexural phonons in graphene.
  Physical Review B, 96(7), 75448. https://doi.org/10.1103/PhysRevB.96.075448
 ----2D----2D----2D----2D----2D----2D----2D----2D----2D----2D----2D----2D

     Check: negative core charge=   -0.000002

     negative rho (up, down):  1.391E-05 0.000E+00


     Dynamical matrices for ( 6, 6, 1)  uniform grid of q-points
     (   7 q-points):
       N         xq(1)         xq(2)         xq(3) 
       1   0.000000000   0.000000000   0.000000000
       2   0.000000000   0.192450090   0.000000000
       3   0.000000000   0.384900179   0.000000000
       4   0.000000000  -0.577350269   0.000000000
       5   0.166666667   0.288675135   0.000000000
       6   0.166666667   0.481125224   0.000000000
       7   0.333333333   0.577350269   0.000000000

     Calculation of q =    0.0000000   0.0000000   0.0000000

     default                                                                    

     bravais-lattice index     =            4
     lattice parameter (alat)  =       4.7419  a.u.
     unit-cell volume          =     397.0601 (a.u.)^3
     number of atoms/cell      =            2
     number of atomic types    =            2
     kinetic-energy cut-off    =      55.0000  Ry
     charge density cut-off    =     440.0000  Ry
     convergence threshold     =      1.0E-15
     beta                      =       0.7000
     number of iterations used =            4
     Exchange-correlation      = PBE ( 1  4  3  4 0 0)


     celldm(1)=    4.74190  celldm(2)=    0.00000  celldm(3)=    4.30000
     celldm(4)=    0.00000  celldm(5)=    0.00000  celldm(6)=    0.00000

     crystal axes: (cart. coord. in units of alat)
               a(1) = (  1.0000  0.0000  0.0000 )  
               a(2) = ( -0.5000  0.8660  0.0000 )  
               a(3) = (  0.0000  0.0000  4.3000 )  

     reciprocal axes: (cart. coord. in units 2 pi/alat)
               b(1) = (  1.0000  0.5774  0.0000 )  
               b(2) = (  0.0000  1.1547  0.0000 )  
               b(3) = (  0.0000  0.0000  0.2326 )  


     Atoms inside the unit cell: 

     Cartesian axes

     site n.  atom      mass           positions (alat units)
        1     B   10.8100   tau(    1) = (    0.00000    0.28868    0.00000  )
        2     N   14.0067   tau(    2) = (    0.00000   -0.28868    0.00000  )

     Computing dynamical matrix for 
                    q = (   0.0000000   0.0000000   0.0000000 )
 
     13 Sym.Ops. (with q -> -q+G )


     G cutoff =  250.6096  (   7718 G-vectors)     FFT grid: ( 32, 32,144)
     G cutoff =  125.3048  (   2738 G-vectors)  smooth grid: ( 24, 24,100)
     number of k points=    10

     PseudoPot. # 1 for B  read from file:
     ./pseudo_dir/B.pbe-n-kjpaw_psl.0.1.UPF
     MD5 check sum: ce1cfd82b228d771fe3728b6beef9a4c
     Pseudo is Ultrasoft + core correction, Zval =  3.0
     Generated using "atomic" code by A. Dal Corso v.6.3MaX
     Using radial grid of 1059 points,  4 beta functions with: 
                l(1) =   0
                l(2) =   0
                l(3) =   1
                l(4) =   1
     Q(r) pseudized with 0 coefficients 


     PseudoPot. # 2 for N  read from file:
     ./pseudo_dir/N.pbe-n-kjpaw_psl.0.1.UPF
     MD5 check sum: 5f964142c164ed943b244cf6ba502af7
     Pseudo is Projector augmented-wave + core cor, Zval =  5.0
     Generated using "atomic" code by A. Dal Corso v.6.3
     Shape of augmentation charge: PSQ
     Using radial grid of 1085 points,  4 beta functions with: 
                l(1) =   0
                l(2) =   0
                l(3) =   1
                l(4) =   1
     Q(r) pseudized with 0 coefficients 


     Mode symmetry, D_3h (-62m) point group:


     Electric field:
     Dielectric constant
     Born effective charges in two ways 


     Atomic displacements:
     There are   4 irreducible representations

     Representation     1      2 modes -E'  To be done

     Representation     2      2 modes -E'  To be done

     Representation     3      1 modes -A''2  To be done

     Representation     4      1 modes -A''2  To be done



     Alpha used in Ewald sum =   2.8000

     negative rho (up, down):  1.391E-05 0.000E+00
     PHONON       :      4.51s CPU      4.70s WALL


     Electric Fields Calculation

      iter #   1 total cpu time :     8.4 secs   av.it.:   6.8
      thresh= 1.000E-02 alpha_mix =  0.700 |ddv_scf|^2 =  2.012E-05

      iter #   2 total cpu time :    10.3 secs   av.it.:   9.0
      thresh= 4.486E-04 alpha_mix =  0.700 |ddv_scf|^2 =  2.414E-05

      iter #   3 total cpu time :    11.9 secs   av.it.:   6.1
      thresh= 4.914E-04 alpha_mix =  0.700 |ddv_scf|^2 =  1.155E-08

      iter #   4 total cpu time :    13.9 secs   av.it.:   9.7
      thresh= 1.075E-05 alpha_mix =  0.700 |ddv_scf|^2 =  1.015E-10

      iter #   5 total cpu time :    15.9 secs   av.it.:  10.1
      thresh= 1.007E-06 alpha_mix =  0.700 |ddv_scf|^2 =  3.296E-12

      iter #   6 total cpu time :    17.9 secs   av.it.:  10.0
      thresh= 1.815E-07 alpha_mix =  0.700 |ddv_scf|^2 =  1.899E-14

      iter #   7 total cpu time :    19.9 secs   av.it.:  10.7
      thresh= 1.378E-08 alpha_mix =  0.700 |ddv_scf|^2 =  6.235E-17

     End of electric fields calculation

          Dielectric constant in cartesian axis 

          (       2.166053848      -0.000000000       0.000000000 )
          (      -0.000000000       2.166053848       0.000000000 )
          (       0.000000000       0.000000000       1.192060606 )

          Effective charges (d Force / dE) in cartesian axis

           atom      1   B  
      Ex  (        2.70085       -0.00000        0.00000 )
      Ey  (       -0.00000        2.70085        0.00000 )
      Ez  (        0.00000        0.00000        0.24307 )
           atom      2   N  
      Ex  (       -2.70966       -0.00000       -0.00000 )
      Ey  (        0.00000       -2.70966       -0.00000 )
      Ez  (        0.00000        0.00000       -0.24941 )


     Representation #  1 modes #   1  2

     Self-consistent Calculation

      iter #   1 total cpu time :    22.6 secs   av.it.:   6.8
      thresh= 1.000E-02 alpha_mix =  0.700 |ddv_scf|^2 =  8.024E-08

      iter #   2 total cpu time :    24.2 secs   av.it.:  11.6
      thresh= 2.833E-05 alpha_mix =  0.700 |ddv_scf|^2 =  1.934E-10

      iter #   3 total cpu time :    25.7 secs   av.it.:  11.2
      thresh= 1.391E-06 alpha_mix =  0.700 |ddv_scf|^2 =  1.856E-11

      iter #   4 total cpu time :    27.2 secs   av.it.:  11.2
      thresh= 4.308E-07 alpha_mix =  0.700 |ddv_scf|^2 =  2.112E-13

      iter #   5 total cpu time :    28.7 secs   av.it.:  10.8
      thresh= 4.595E-08 alpha_mix =  0.700 |ddv_scf|^2 =  5.102E-16

     End of self-consistent calculation

     Convergence has been achieved 


     Representation #  2 modes #   3  4

     Self-consistent Calculation

      iter #   1 total cpu time :    30.2 secs   av.it.:   6.2
      thresh= 1.000E-02 alpha_mix =  0.700 |ddv_scf|^2 =  4.945E-08

      iter #   2 total cpu time :    31.8 secs   av.it.:  10.7
      thresh= 2.224E-05 alpha_mix =  0.700 |ddv_scf|^2 =  4.243E-09

      iter #   3 total cpu time :    33.3 secs   av.it.:  10.2
      thresh= 6.514E-06 alpha_mix =  0.700 |ddv_scf|^2 =  3.792E-12

      iter #   4 total cpu time :    34.8 secs   av.it.:  11.2
      thresh= 1.947E-07 alpha_mix =  0.700 |ddv_scf|^2 =  4.336E-14

      iter #   5 total cpu time :    36.3 secs   av.it.:  11.7
      thresh= 2.082E-08 alpha_mix =  0.700 |ddv_scf|^2 =  1.051E-15

      iter #   6 total cpu time :    37.9 secs   av.it.:  11.6
      thresh= 3.241E-09 alpha_mix =  0.700 |ddv_scf|^2 =  2.262E-18

     End of self-consistent calculation

     Convergence has been achieved 


     Representation #  3 mode #   5

     Self-consistent Calculation

      iter #   1 total cpu time :    38.8 secs   av.it.:   6.4
      thresh= 1.000E-02 alpha_mix =  0.700 |ddv_scf|^2 =  3.517E-05

      iter #   2 total cpu time :    39.6 secs   av.it.:   9.2
      thresh= 5.931E-04 alpha_mix =  0.700 |ddv_scf|^2 =  4.447E-05

      iter #   3 total cpu time :    40.4 secs   av.it.:   8.6
      thresh= 6.669E-04 alpha_mix =  0.700 |ddv_scf|^2 =  3.061E-08

      iter #   4 total cpu time :    41.1 secs   av.it.:   8.6
      thresh= 1.750E-05 alpha_mix =  0.700 |ddv_scf|^2 =  1.654E-10

      iter #   5 total cpu time :    41.9 secs   av.it.:   8.5
      thresh= 1.286E-06 alpha_mix =  0.700 |ddv_scf|^2 =  5.528E-12

      iter #   6 total cpu time :    42.7 secs   av.it.:   9.1
      thresh= 2.351E-07 alpha_mix =  0.700 |ddv_scf|^2 =  9.809E-14

      iter #   7 total cpu time :    43.5 secs   av.it.:   9.0
      thresh= 3.132E-08 alpha_mix =  0.700 |ddv_scf|^2 =  2.311E-17

     End of self-consistent calculation

     Convergence has been achieved 


     Representation #  4 mode #   6

     Self-consistent Calculation

      iter #   1 total cpu time :    44.3 secs   av.it.:   7.3
      thresh= 1.000E-02 alpha_mix =  0.700 |ddv_scf|^2 =  1.634E-04

      iter #   2 total cpu time :    45.1 secs   av.it.:   9.4
      thresh= 1.278E-03 alpha_mix =  0.700 |ddv_scf|^2 =  2.346E-04

      iter #   3 total cpu time :    45.9 secs   av.it.:   8.5
      thresh= 1.532E-03 alpha_mix =  0.700 |ddv_scf|^2 =  2.287E-07

      iter #   4 total cpu time :    46.6 secs   av.it.:   8.8
      thresh= 4.782E-05 alpha_mix =  0.700 |ddv_scf|^2 =  2.817E-10

      iter #   5 total cpu time :    47.4 secs   av.it.:   9.3
      thresh= 1.678E-06 alpha_mix =  0.700 |ddv_scf|^2 =  1.531E-12

      iter #   6 total cpu time :    48.2 secs   av.it.:   9.3
      thresh= 1.237E-07 alpha_mix =  0.700 |ddv_scf|^2 =  1.096E-13

      iter #   7 total cpu time :    49.0 secs   av.it.:   9.3
      thresh= 3.311E-08 alpha_mix =  0.700 |ddv_scf|^2 =  4.653E-17

     End of self-consistent calculation

     Convergence has been achieved 
 
     Number of q in the star =    1
     List of q in the star:
          1   0.000000000   0.000000000   0.000000000

          Dielectric constant in cartesian axis 

          (       2.166053848      -0.000000000       0.000000000 )
          (      -0.000000000       2.166053848       0.000000000 )
          (       0.000000000       0.000000000       1.192060606 )

          Effective charges (d Force / dE) in cartesian axis

           atom      1   B  
      Ex  (        2.70085       -0.00000        0.00000 )
      Ey  (       -0.00000        2.70085        0.00000 )
      Ez  (        0.00000        0.00000        0.24307 )
           atom      2   N  
      Ex  (       -2.70966       -0.00000       -0.00000 )
      Ey  (        0.00000       -2.70966       -0.00000 )
      Ez  (        0.00000        0.00000       -0.24941 )

          Effective charges (d P / du) in cartesian axis 

           atom      1   B  
      Px  (        2.70084        0.00000        0.00000 )
      Py  (        0.00000        2.70084       -0.00000 )
      Pz  (        0.00000        0.00000        0.24307 )
           atom      2   N  
      Px  (       -2.70962        0.00000        0.00000 )
      Py  (        0.00000       -2.70962        0.00000 )
      Pz  (        0.00000        0.00000       -0.24940 )

     Diagonalizing the dynamical matrix

     q = (    0.000000000   0.000000000   0.000000000 ) 

 **************************************************************************
     freq (    1) =      -1.293459 [THz] =     -43.145164 [cm-1]
     freq (    2) =      -1.293459 [THz] =     -43.145164 [cm-1]
     freq (    3) =      -1.128046 [THz] =     -37.627549 [cm-1]
     freq (    4) =      24.122228 [THz] =     804.630918 [cm-1]
     freq (    5) =      40.194759 [THz] =    1340.752831 [cm-1]
     freq (    6) =      40.194759 [THz] =    1340.752831 [cm-1]
 **************************************************************************

     Mode symmetry, D_3h (-62m) point group:

     freq (  1 -  2) =        -43.1  [cm-1]   --> E'              I+R
     freq (  3 -  3) =        -37.6  [cm-1]   --> A''2            I  
     freq (  4 -  4) =        804.6  [cm-1]   --> A''2            I  
     freq (  5 -  6) =       1340.8  [cm-1]   --> E'              I+R

     Calculation of q =    0.0000000   0.1924501   0.0000000

     Subspace diagonalization in iterative solution of the eigenvalue problem:
     a serial algorithm will be used

 
     Parallelization info
     --------------------
     sticks:   dense  smooth     PW     G-vecs:    dense   smooth      PW
     Min          84      42     13                 7714     2732     505
     Max          85      44     14                 7737     2740     520
     Sum         673     349    109                61757    21901    4111
 

     Title: 
     default                                                                    


     bravais-lattice index     =            4
     lattice parameter (alat)  =       4.7419  a.u.
     unit-cell volume          =     397.0601 (a.u.)^3
     number of atoms/cell      =            2
     number of atomic types    =            2
     number of electrons       =         8.00
     number of Kohn-Sham states=            4
     kinetic-energy cutoff     =      55.0000  Ry
     charge density cutoff     =     440.0000  Ry
     Exchange-correlation      = PBE ( 1  4  3  4 0 0)

     celldm(1)=   4.741900  celldm(2)=   0.000000  celldm(3)=   4.300000
     celldm(4)=   0.000000  celldm(5)=   0.000000  celldm(6)=   0.000000

     crystal axes: (cart. coord. in units of alat)
               a(1) = (   1.000000   0.000000   0.000000 )  
               a(2) = (  -0.500000   0.866025   0.000000 )  
               a(3) = (   0.000000   0.000000   4.300000 )  

     reciprocal axes: (cart. coord. in units 2 pi/alat)
               b(1) = (  1.000000  0.577350  0.000000 )  
               b(2) = (  0.000000  1.154701  0.000000 )  
               b(3) = (  0.000000  0.000000  0.232558 )  


     PseudoPot. # 1 for B  read from file:
     ./pseudo_dir/B.pbe-n-kjpaw_psl.0.1.UPF
     MD5 check sum: ce1cfd82b228d771fe3728b6beef9a4c
     Pseudo is Ultrasoft + core correction, Zval =  3.0
     Generated using "atomic" code by A. Dal Corso v.6.3MaX
     Using radial grid of 1059 points,  4 beta functions with: 
                l(1) =   0
                l(2) =   0
                l(3) =   1
                l(4) =   1
     Q(r) pseudized with 0 coefficients 


     PseudoPot. # 2 for N  read from file:
     ./pseudo_dir/N.pbe-n-kjpaw_psl.0.1.UPF
     MD5 check sum: 5f964142c164ed943b244cf6ba502af7
     Pseudo is Projector augmented-wave + core cor, Zval =  5.0
     Generated using "atomic" code by A. Dal Corso v.6.3
     Shape of augmentation charge: PSQ
     Using radial grid of 1085 points,  4 beta functions with: 
                l(1) =   0
                l(2) =   0
                l(3) =   1
                l(4) =   1
     Q(r) pseudized with 0 coefficients 


     atomic species   valence    mass     pseudopotential
        B              3.00    10.81000     B ( 1.00)
        N              5.00    14.00674     N ( 1.00)

     12 Sym. Ops. (no inversion) found



   Cartesian axes

     site n.     atom                  positions (alat units)
         1           B   tau(   1) = (   0.0000000   0.2886751   0.0000000  )
         2           N   tau(   2) = (   0.0000000  -0.2886751   0.0000000  )

     number of k points=    72
                       cart. coord. in units 2pi/alat
        k(    1) = (   0.0000000   0.0000000   0.0000000), wk =   0.0312500
        k(    2) = (   0.0000000   0.1924501   0.0000000), wk =   0.0000000
        k(    3) = (   0.0000000   0.1443376   0.0000000), wk =   0.0312500
        k(    4) = (   0.0000000   0.3367877   0.0000000), wk =   0.0000000
        k(    5) = (   0.0000000   0.2886751   0.0000000), wk =   0.0312500
        k(    6) = (   0.0000000   0.4811252   0.0000000), wk =   0.0000000
        k(    7) = (   0.0000000   0.4330127   0.0000000), wk =   0.0312500
        k(    8) = (   0.0000000   0.6254628   0.0000000), wk =   0.0000000
        k(    9) = (   0.0000000  -0.5773503   0.0000000), wk =   0.0312500
        k(   10) = (   0.0000000  -0.3849002   0.0000000), wk =   0.0000000
        k(   11) = (   0.1250000   0.2165064   0.0000000), wk =   0.0625000
        k(   12) = (   0.1250000   0.4089564   0.0000000), wk =   0.0000000
        k(   13) = (   0.1250000   0.3608439   0.0000000), wk =   0.0625000
        k(   14) = (   0.1250000   0.5532940   0.0000000), wk =   0.0000000
        k(   15) = (   0.1250000   0.5051815   0.0000000), wk =   0.0625000
        k(   16) = (   0.1250000   0.6976316   0.0000000), wk =   0.0000000
        k(   17) = (   0.2500000   0.4330127   0.0000000), wk =   0.0625000
        k(   18) = (   0.2500000   0.6254628   0.0000000), wk =   0.0000000
        k(   19) = (   0.2500000   0.5773503   0.0000000), wk =   0.0625000
        k(   20) = (   0.2500000   0.7698004   0.0000000), wk =   0.0000000
        k(   21) = (   0.1250000  -0.0721688   0.0000000), wk =   0.0625000
        k(   22) = (   0.1250000   0.1202813   0.0000000), wk =   0.0000000
        k(   23) = (   0.0000000  -0.1443376   0.0000000), wk =   0.0312500
        k(   24) = (   0.0000000   0.0481125   0.0000000), wk =   0.0000000
        k(   25) = (  -0.1250000   0.0721688   0.0000000), wk =   0.0625000
        k(   26) = (  -0.1250000   0.2646189   0.0000000), wk =   0.0000000
        k(   27) = (   0.2500000  -0.1443376   0.0000000), wk =   0.0625000
        k(   28) = (   0.2500000   0.0481125   0.0000000), wk =   0.0000000
        k(   29) = (   0.0000000  -0.2886751   0.0000000), wk =   0.0312500
        k(   30) = (   0.0000000  -0.0962250   0.0000000), wk =   0.0000000
        k(   31) = (  -0.2500000   0.1443376   0.0000000), wk =   0.0625000
        k(   32) = (  -0.2500000   0.3367877   0.0000000), wk =   0.0000000
        k(   33) = (   0.3750000  -0.2165064   0.0000000), wk =   0.0625000
        k(   34) = (   0.3750000  -0.0240563   0.0000000), wk =   0.0000000
        k(   35) = (   0.0000000  -0.4330127   0.0000000), wk =   0.0312500
        k(   36) = (   0.0000000  -0.2405626   0.0000000), wk =   0.0000000
        k(   37) = (  -0.3750000   0.2165064   0.0000000), wk =   0.0625000
        k(   38) = (  -0.3750000   0.4089564   0.0000000), wk =   0.0000000
        k(   39) = (  -0.5000000   0.2886751   0.0000000), wk =   0.0625000
        k(   40) = (  -0.5000000   0.4811252   0.0000000), wk =   0.0000000
        k(   41) = (   0.1250000  -0.2165064   0.0000000), wk =   0.0625000
        k(   42) = (   0.1250000  -0.0240563   0.0000000), wk =   0.0000000
        k(   43) = (  -0.2500000   0.0000000   0.0000000), wk =   0.0625000
        k(   44) = (  -0.2500000   0.1924501   0.0000000), wk =   0.0000000
        k(   45) = (   0.2500000  -0.2886751   0.0000000), wk =   0.0625000
        k(   46) = (   0.2500000  -0.0962250   0.0000000), wk =   0.0000000
        k(   47) = (  -0.3750000  -0.0721688   0.0000000), wk =   0.0625000
        k(   48) = (  -0.3750000   0.1202813   0.0000000), wk =   0.0000000
        k(   49) = (  -0.1250000  -0.3608439   0.0000000), wk =   0.0625000
        k(   50) = (  -0.1250000  -0.1683938   0.0000000), wk =   0.0000000
        k(   51) = (  -0.2500000   0.2886751   0.0000000), wk =   0.0625000
        k(   52) = (  -0.2500000   0.4811252   0.0000000), wk =   0.0000000
        k(   53) = (   0.3750000   0.0721688   0.0000000), wk =   0.0625000
        k(   54) = (   0.3750000   0.2646189   0.0000000), wk =   0.0000000
        k(   55) = (   0.3750000  -0.3608439   0.0000000), wk =   0.0625000
        k(   56) = (   0.3750000  -0.1683938   0.0000000), wk =   0.0000000
        k(   57) = (  -0.5000000  -0.1443376   0.0000000), wk =   0.0625000
        k(   58) = (  -0.5000000   0.0481125   0.0000000), wk =   0.0000000
        k(   59) = (  -0.1250000  -0.5051815   0.0000000), wk =   0.0625000
        k(   60) = (  -0.1250000  -0.3127314   0.0000000), wk =   0.0000000
        k(   61) = (  -0.3750000   0.3608439   0.0000000), wk =   0.0625000
        k(   62) = (  -0.3750000   0.5532940   0.0000000), wk =   0.0000000
        k(   63) = (   0.5000000   0.1443376   0.0000000), wk =   0.0625000
        k(   64) = (   0.5000000   0.3367877   0.0000000), wk =   0.0000000
        k(   65) = (   0.2500000  -0.4330127   0.0000000), wk =   0.0625000
        k(   66) = (   0.2500000  -0.2405626   0.0000000), wk =   0.0000000
        k(   67) = (  -0.5000000   0.0000000   0.0000000), wk =   0.0625000
        k(   68) = (  -0.5000000   0.1924501   0.0000000), wk =   0.0000000
        k(   69) = (   0.3750000  -0.5051815   0.0000000), wk =   0.0625000
        k(   70) = (   0.3750000  -0.3127314   0.0000000), wk =   0.0000000
        k(   71) = (  -0.6250000  -0.0721688   0.0000000), wk =   0.0625000
        k(   72) = (  -0.6250000   0.1202813   0.0000000), wk =   0.0000000

     Dense  grid:    61757 G-vectors     FFT dimensions: (  32,  32, 144)

     Smooth grid:    21901 G-vectors     FFT dimensions: (  24,  24, 100)

     Estimated max dynamical RAM per process >       8.59 MB

     Estimated total dynamical RAM >      68.69 MB
 ----2D----2D----2D----2D----2D----2D----2D----2D----2D----2D----2D----2D
  The code is running with the 2D cutoff
  Please refer to:
  Sohier, T., Calandra, M., & Mauri, F. (2017), 
  Density functional perturbation theory for gated two-dimensional heterostructu
 res:
  Theoretical developments and application to flexural phonons in graphene.
  Physical Review B, 96(7), 75448. https://doi.org/10.1103/PhysRevB.96.075448
 ----2D----2D----2D----2D----2D----2D----2D----2D----2D----2D----2D----2D

     Check: negative core charge=   -0.000002

     The potential is recalculated from file :
     /scratch/aurru/bn_scf_less_q/_ph0/bn.save/charge-density


     negative rho (up, down):  1.391E-05 0.000E+00
     Starting wfcs are    8 atomic wfcs
     Checking if some PAW data can be deallocated... 

     Band Structure Calculation
     Davidson diagonalization with overlap

     ethr =  1.25E-10,  avg # of iterations = 17.8

     total cpu time spent up to now is        4.4 secs

     End of band structure calculation

          k = 0.0000 0.0000 0.0000 (  2761 PWs)   bands (ev):

   -23.4517 -11.0293  -7.1763  -7.1763

          k = 0.0000 0.1925 0.0000 (  2756 PWs)   bands (ev):

   -22.9270 -10.3233  -9.1371  -8.0579

          k = 0.0000 0.1443 0.0000 (  2765 PWs)   bands (ev):

   -23.1540 -10.6295  -8.3598  -7.7165

          k = 0.0000 0.3368 0.0000 (  2736 PWs)   bands (ev):

   -21.9242 -11.8210  -9.1154  -8.9551

          k = 0.0000 0.2887 0.0000 (  2740 PWs)   bands (ev):

   -22.3039 -10.9147  -9.4770  -8.7826

          k = 0.0000 0.4811 0.0000 (  2722 PWs)   bands (ev):

   -20.7472 -14.0996  -9.8136  -7.2742

          k = 0.0000 0.4330 0.0000 (  2722 PWs)   bands (ev):

   -21.1123 -13.4617  -9.6405  -7.8108

          k = 0.0000 0.6255 0.0000 (  2724 PWs)   bands (ev):

   -20.4829 -14.5306  -9.9193  -6.8705

          k = 0.0000-0.5774 0.0000 (  2728 PWs)   bands (ev):

   -20.3845 -14.6850  -9.9549  -6.7155

          k = 0.0000-0.3849 0.0000 (  2740 PWs)   bands (ev):

   -21.5185 -12.6844  -9.4052  -8.3893

          k = 0.1250 0.2165 0.0000 (  2751 PWs)   bands (ev):

   -22.5783  -9.9799  -9.8513  -8.7709

          k = 0.1250 0.4090 0.0000 (  2727 PWs)   bands (ev):

   -21.1351 -13.0235 -10.3102  -7.8481

          k = 0.1250 0.3608 0.0000 (  2742 PWs)   bands (ev):

   -21.5335 -12.2724 -10.0122  -8.4130

          k = 0.1250 0.5533 0.0000 (  2726 PWs)   bands (ev):

   -20.2662 -14.4682 -10.7661  -6.5423

          k = 0.1250 0.5052 0.0000 (  2724 PWs)   bands (ev):

   -20.4460 -14.1887 -10.6894  -6.8258

          k = 0.1250 0.6976 0.0000 (  2727 PWs)   bands (ev):

   -20.7563 -13.6835 -10.5369  -7.2958

          k = 0.2500 0.4330 0.0000 (  2726 PWs)   bands (ev):

   -20.5043 -13.4043 -11.6889  -6.9276

          k = 0.2500 0.6255 0.0000 (  2714 PWs)   bands (ev):

   -20.0004 -13.9161 -12.2961  -6.1352

          k = 0.2500 0.5774 0.0000 (  2706 PWs)   bands (ev):

   -19.9254 -13.9948 -12.3719  -6.0095

          k = 0.2500 0.7698 0.0000 (  2720 PWs)   bands (ev):

   -20.8462 -13.0585 -11.1855  -7.4341

          k = 0.1250-0.0722 0.0000 (  2765 PWs)   bands (ev):

   -23.1540 -10.6295  -8.3598  -7.7165

          k = 0.1250 0.1203 0.0000 (  2755 PWs)   bands (ev):

   -23.0237 -10.4539  -8.7882  -7.9534

          k = 0.0000-0.1443 0.0000 (  2765 PWs)   bands (ev):

   -23.1540 -10.6295  -8.3598  -7.7165

          k = 0.0000 0.0481 0.0000 (  2773 PWs)   bands (ev):

   -23.4183 -10.9846  -7.3209  -7.2433

          k =-0.1250 0.0722 0.0000 (  2765 PWs)   bands (ev):

   -23.1540 -10.6295  -8.3598  -7.7165

          k =-0.1250 0.2646 0.0000 (  2745 PWs)   bands (ev):

   -22.2718 -10.7059  -9.4336  -9.2266

          k = 0.2500-0.1443 0.0000 (  2740 PWs)   bands (ev):

   -22.3039 -10.9147  -9.4770  -8.7826

          k = 0.2500 0.0481 0.0000 (  2755 PWs)   bands (ev):

   -22.5475 -10.1266  -9.8093  -8.7280

          k = 0.0000-0.2887 0.0000 (  2740 PWs)   bands (ev):

   -22.3039 -10.9147  -9.4770  -8.7826

          k = 0.0000-0.0962 0.0000 (  2765 PWs)   bands (ev):

   -23.3187 -10.8508  -7.7332  -7.4329

          k =-0.2500 0.1443 0.0000 (  2740 PWs)   bands (ev):

   -22.3039 -10.9147  -9.4770  -8.7826

          k =-0.2500 0.3368 0.0000 (  2725 PWs)   bands (ev):

   -21.1977 -12.6805 -10.6058  -7.9395

          k = 0.3750-0.2165 0.0000 (  2722 PWs)   bands (ev):

   -21.1123 -13.4617  -9.6405  -7.8108

          k = 0.3750-0.0241 0.0000 (  2739 PWs)   bands (ev):

   -21.5835 -12.0014 -10.2132  -8.4837

          k = 0.0000-0.4330 0.0000 (  2722 PWs)   bands (ev):

   -21.1123 -13.4617  -9.6405  -7.8108

          k = 0.0000-0.2406 0.0000 (  2754 PWs)   bands (ev):

   -22.6415 -10.0056  -9.9368  -8.4228

          k =-0.3750 0.2165 0.0000 (  2722 PWs)   bands (ev):

   -21.1123 -13.4617  -9.6405  -7.8108

          k =-0.3750 0.4090 0.0000 (  2719 PWs)   bands (ev):

   -20.2328 -14.2337 -11.2529  -6.4979

          k =-0.5000 0.2887 0.0000 (  2728 PWs)   bands (ev):

   -20.3845 -14.6850  -9.9549  -6.7155

          k =-0.5000 0.4811 0.0000 (  2726 PWs)   bands (ev):

   -20.4755 -13.8635 -11.1248  -6.8777

          k = 0.1250-0.2165 0.0000 (  2751 PWs)   bands (ev):

   -22.5783  -9.9799  -9.8513  -8.7709

          k = 0.1250-0.0241 0.0000 (  2763 PWs)   bands (ev):

   -23.2197 -10.7177  -8.1007  -7.6264

          k =-0.2500 0.0000 0.0000 (  2751 PWs)   bands (ev):

   -22.5783  -9.9799  -9.8513  -8.7709

          k =-0.2500 0.1925 0.0000 (  2742 PWs)   bands (ev):

   -22.0960 -11.3778  -9.1922  -9.0460

          k = 0.2500-0.2887 0.0000 (  2742 PWs)   bands (ev):

   -21.5335 -12.2724 -10.0122  -8.4130

          k = 0.2500-0.0962 0.0000 (  2752 PWs)   bands (ev):

   -22.4554 -10.4771  -9.6839  -8.6921

          k =-0.3750-0.0722 0.0000 (  2742 PWs)   bands (ev):

   -21.5335 -12.2724 -10.0122  -8.4130

          k =-0.3750 0.1203 0.0000 (  2736 PWs)   bands (ev):

   -21.4354 -12.6649  -9.7755  -8.2737

          k =-0.1250-0.3608 0.0000 (  2742 PWs)   bands (ev):

   -21.5335 -12.2724 -10.0122  -8.4130

          k =-0.1250-0.1684 0.0000 (  2754 PWs)   bands (ev):

   -22.8307 -10.1933  -9.3351  -8.3247

          k =-0.2500 0.2887 0.0000 (  2742 PWs)   bands (ev):

   -21.5335 -12.2724 -10.0122  -8.4130

          k =-0.2500 0.4811 0.0000 (  2724 PWs)   bands (ev):

   -20.2075 -13.7030 -12.0673  -6.4698

          k = 0.3750 0.0722 0.0000 (  2742 PWs)   bands (ev):

   -21.5335 -12.2724 -10.0122  -8.4130

          k = 0.3750 0.2646 0.0000 (  2728 PWs)   bands (ev):

   -20.9024 -13.7878  -9.8354  -7.5056

          k = 0.3750-0.3608 0.0000 (  2724 PWs)   bands (ev):

   -20.4460 -14.1887 -10.6894  -6.8258

          k = 0.3750-0.1684 0.0000 (  2728 PWs)   bands (ev):

   -21.2930 -13.0778  -9.6288  -8.0705

          k =-0.5000-0.1443 0.0000 (  2724 PWs)   bands (ev):

   -20.4460 -14.1887 -10.6894  -6.8258

          k =-0.5000 0.0481 0.0000 (  2726 PWs)   bands (ev):

   -20.4967 -13.5509 -11.5146  -6.9144

          k =-0.1250-0.5052 0.0000 (  2724 PWs)   bands (ev):

   -20.4460 -14.1887 -10.6894  -6.8258

          k =-0.1250-0.3127 0.0000 (  2736 PWs)   bands (ev):

   -21.9192 -11.4840  -9.6477  -8.9494

          k =-0.3750 0.3608 0.0000 (  2724 PWs)   bands (ev):

   -20.4460 -14.1887 -10.6894  -6.8258

          k =-0.3750 0.5533 0.0000 (  2722 PWs)   bands (ev):

   -19.8584 -13.7964 -12.7619  -5.9002

          k = 0.5000 0.1443 0.0000 (  2724 PWs)   bands (ev):

   -20.4460 -14.1887 -10.6894  -6.8258

          k = 0.5000 0.3368 0.0000 (  2725 PWs)   bands (ev):

   -20.3930 -14.6259 -10.0475  -6.7309

          k = 0.2500-0.4330 0.0000 (  2726 PWs)   bands (ev):

   -20.5043 -13.4043 -11.6889  -6.9276

          k = 0.2500-0.2406 0.0000 (  2741 PWs)   bands (ev):

   -21.8367 -11.8358  -9.4714  -8.8347

          k =-0.5000 0.0000 0.0000 (  2726 PWs)   bands (ev):

   -20.5043 -13.4043 -11.6889  -6.9276

          k =-0.5000 0.1925 0.0000 (  2721 PWs)   bands (ev):

   -20.4157 -14.4544 -10.3078  -6.7718

          k = 0.3750-0.5052 0.0000 (  2706 PWs)   bands (ev):

   -19.9254 -13.9948 -12.3719  -6.0095

          k = 0.3750-0.3127 0.0000 (  2729 PWs)   bands (ev):

   -20.6752 -14.0357 -10.1990  -7.1703

          k =-0.6250-0.0722 0.0000 (  2706 PWs)   bands (ev):

   -19.9254 -13.9948 -12.3719  -6.0095

          k =-0.6250 0.1203 0.0000 (  2720 PWs)   bands (ev):

   -20.0539 -14.1650 -11.8339  -6.2162

     highest occupied level (ev):    -6.0095

     Writing output data file bn.save/

     default                                                                    

     bravais-lattice index     =            4
     lattice parameter (alat)  =       4.7419  a.u.
     unit-cell volume          =     397.0601 (a.u.)^3
     number of atoms/cell      =            2
     number of atomic types    =            2
     kinetic-energy cut-off    =      55.0000  Ry
     charge density cut-off    =     440.0000  Ry
     convergence threshold     =      1.0E-15
     beta                      =       0.7000
     number of iterations used =            4
     Exchange-correlation      = PBE ( 1  4  3  4 0 0)


     celldm(1)=    4.74190  celldm(2)=    0.00000  celldm(3)=    4.30000
     celldm(4)=    0.00000  celldm(5)=    0.00000  celldm(6)=    0.00000

     crystal axes: (cart. coord. in units of alat)
               a(1) = (  1.0000  0.0000  0.0000 )  
               a(2) = ( -0.5000  0.8660  0.0000 )  
               a(3) = (  0.0000  0.0000  4.3000 )  

     reciprocal axes: (cart. coord. in units 2 pi/alat)
               b(1) = (  1.0000  0.5774  0.0000 )  
               b(2) = (  0.0000  1.1547  0.0000 )  
               b(3) = (  0.0000  0.0000  0.2326 )  


     Atoms inside the unit cell: 

     Cartesian axes

     site n.  atom      mass           positions (alat units)
        1     B   10.8100   tau(    1) = (    0.00000    0.28868    0.00000  )
        2     N   14.0067   tau(    2) = (    0.00000   -0.28868    0.00000  )

     Computing dynamical matrix for 
                    q = (   0.0000000   0.1924501   0.0000000 )
 
      4 Sym.Ops. (no q -> -q+G )


     G cutoff =  250.6096  (   7718 G-vectors)     FFT grid: ( 32, 32,144)
     G cutoff =  125.3048  (   2738 G-vectors)  smooth grid: ( 24, 24,100)
     number of k points=    72

     PseudoPot. # 1 for B  read from file:
     ./pseudo_dir/B.pbe-n-kjpaw_psl.0.1.UPF
     MD5 check sum: ce1cfd82b228d771fe3728b6beef9a4c
     Pseudo is Ultrasoft + core correction, Zval =  3.0
     Generated using "atomic" code by A. Dal Corso v.6.3MaX
     Using radial grid of 1059 points,  4 beta functions with: 
                l(1) =   0
                l(2) =   0
                l(3) =   1
                l(4) =   1
     Q(r) pseudized with 0 coefficients 


     PseudoPot. # 2 for N  read from file:
     ./pseudo_dir/N.pbe-n-kjpaw_psl.0.1.UPF
     MD5 check sum: 5f964142c164ed943b244cf6ba502af7
     Pseudo is Projector augmented-wave + core cor, Zval =  5.0
     Generated using "atomic" code by A. Dal Corso v.6.3
     Shape of augmentation charge: PSQ
     Using radial grid of 1085 points,  4 beta functions with: 
                l(1) =   0
                l(2) =   0
                l(3) =   1
                l(4) =   1
     Q(r) pseudized with 0 coefficients 


     Mode symmetry, C_2v (mm2)  point group:


     Atomic displacements:
     There are   6 irreducible representations

     Representation     1      1 modes -A_1  D_1  S_1  To be done

     Representation     2      1 modes -A_1  D_1  S_1  To be done

     Representation     3      1 modes -B_1  D_3  S_3  To be done

     Representation     4      1 modes -B_1  D_3  S_3  To be done

     Representation     5      1 modes -B_2  D_4  S_4  To be done

     Representation     6      1 modes -B_2  D_4  S_4  To be done



     Alpha used in Ewald sum =   2.8000

     negative rho (up, down):  1.391E-05 0.000E+00
     PHONON       :     48.74s CPU     56.60s WALL



     Representation #  1 mode #   1

     Self-consistent Calculation

      iter #   1 total cpu time :    57.9 secs   av.it.:   6.9
      thresh= 1.000E-02 alpha_mix =  0.700 |ddv_scf|^2 =  5.170E-06

      iter #   2 total cpu time :    59.7 secs   av.it.:  10.6
      thresh= 2.274E-04 alpha_mix =  0.700 |ddv_scf|^2 =  6.069E-06

      iter #   3 total cpu time :    61.4 secs   av.it.:  10.1
      thresh= 2.464E-04 alpha_mix =  0.700 |ddv_scf|^2 =  4.070E-08

      iter #   4 total cpu time :    63.2 secs   av.it.:  10.4
      thresh= 2.017E-05 alpha_mix =  0.700 |ddv_scf|^2 =  4.219E-09

      iter #   5 total cpu time :    64.9 secs   av.it.:  10.7
      thresh= 6.496E-06 alpha_mix =  0.700 |ddv_scf|^2 =  1.937E-10

      iter #   6 total cpu time :    66.5 secs   av.it.:  10.2
      thresh= 1.392E-06 alpha_mix =  0.700 |ddv_scf|^2 =  3.408E-14

      iter #   7 total cpu time :    68.4 secs   av.it.:  11.5
      thresh= 1.846E-08 alpha_mix =  0.700 |ddv_scf|^2 =  1.747E-14

      iter #   8 total cpu time :    70.7 secs   av.it.:  10.8
      thresh= 1.322E-08 alpha_mix =  0.700 |ddv_scf|^2 =  9.782E-16

     End of self-consistent calculation

     Convergence has been achieved 


     Representation #  2 mode #   2

     Self-consistent Calculation

      iter #   1 total cpu time :    72.3 secs   av.it.:   7.6
      thresh= 1.000E-02 alpha_mix =  0.700 |ddv_scf|^2 =  4.069E-05

      iter #   2 total cpu time :    74.5 secs   av.it.:  10.6
      thresh= 6.379E-04 alpha_mix =  0.700 |ddv_scf|^2 =  5.154E-05

      iter #   3 total cpu time :    76.1 secs   av.it.:   9.8
      thresh= 7.179E-04 alpha_mix =  0.700 |ddv_scf|^2 =  2.767E-08

      iter #   4 total cpu time :    77.9 secs   av.it.:  11.8
      thresh= 1.663E-05 alpha_mix =  0.700 |ddv_scf|^2 =  2.874E-08

      iter #   5 total cpu time :    79.5 secs   av.it.:  10.7
      thresh= 1.695E-05 alpha_mix =  0.700 |ddv_scf|^2 =  3.517E-11

      iter #   6 total cpu time :    81.2 secs   av.it.:  10.6
      thresh= 5.930E-07 alpha_mix =  0.700 |ddv_scf|^2 =  9.631E-13

      iter #   7 total cpu time :    82.8 secs   av.it.:  10.6
      thresh= 9.814E-08 alpha_mix =  0.700 |ddv_scf|^2 =  3.434E-14

      iter #   8 total cpu time :    84.5 secs   av.it.:  10.9
      thresh= 1.853E-08 alpha_mix =  0.700 |ddv_scf|^2 =  1.324E-14

      iter #   9 total cpu time :    86.1 secs   av.it.:  10.3
      thresh= 1.151E-08 alpha_mix =  0.700 |ddv_scf|^2 =  2.495E-16

     End of self-consistent calculation

     Convergence has been achieved 


     Representation #  3 mode #   3

     Self-consistent Calculation

      iter #   1 total cpu time :    87.6 secs   av.it.:   7.2
      thresh= 1.000E-02 alpha_mix =  0.700 |ddv_scf|^2 =  3.694E-07

      iter #   2 total cpu time :    89.3 secs   av.it.:  11.5
      thresh= 6.078E-05 alpha_mix =  0.700 |ddv_scf|^2 =  1.049E-09

      iter #   3 total cpu time :    91.0 secs   av.it.:  11.1
      thresh= 3.239E-06 alpha_mix =  0.700 |ddv_scf|^2 =  8.101E-11

      iter #   4 total cpu time :    92.7 secs   av.it.:  10.8
      thresh= 9.001E-07 alpha_mix =  0.700 |ddv_scf|^2 =  9.073E-13

      iter #   5 total cpu time :    94.3 secs   av.it.:  10.6
      thresh= 9.525E-08 alpha_mix =  0.700 |ddv_scf|^2 =  3.541E-15

      iter #   6 total cpu time :    96.0 secs   av.it.:  11.4
      thresh= 5.951E-09 alpha_mix =  0.700 |ddv_scf|^2 =  8.504E-18

     End of self-consistent calculation

     Convergence has been achieved 


     Representation #  4 mode #   4

     Self-consistent Calculation

      iter #   1 total cpu time :    97.3 secs   av.it.:   6.6
      thresh= 1.000E-02 alpha_mix =  0.700 |ddv_scf|^2 =  3.126E-07

      iter #   2 total cpu time :    99.0 secs   av.it.:  10.0
      thresh= 5.591E-05 alpha_mix =  0.700 |ddv_scf|^2 =  2.685E-08

      iter #   3 total cpu time :   101.2 secs   av.it.:   9.4
      thresh= 1.639E-05 alpha_mix =  0.700 |ddv_scf|^2 =  2.629E-11

      iter #   4 total cpu time :   103.2 secs   av.it.:  10.4
      thresh= 5.127E-07 alpha_mix =  0.700 |ddv_scf|^2 =  1.923E-13

      iter #   5 total cpu time :   104.9 secs   av.it.:  11.1
      thresh= 4.385E-08 alpha_mix =  0.700 |ddv_scf|^2 =  3.118E-15

      iter #   6 total cpu time :   106.8 secs   av.it.:  11.1
      thresh= 5.584E-09 alpha_mix =  0.700 |ddv_scf|^2 =  8.865E-18

     End of self-consistent calculation

     Convergence has been achieved 


     Representation #  5 mode #   5

     Self-consistent Calculation

      iter #   1 total cpu time :   108.2 secs   av.it.:   6.8
      thresh= 1.000E-02 alpha_mix =  0.700 |ddv_scf|^2 =  2.386E-06

      iter #   2 total cpu time :   109.8 secs   av.it.:  10.1
      thresh= 1.545E-04 alpha_mix =  0.700 |ddv_scf|^2 =  4.488E-07

      iter #   3 total cpu time :   111.4 secs   av.it.:  10.1
      thresh= 6.699E-05 alpha_mix =  0.700 |ddv_scf|^2 =  2.535E-08

      iter #   4 total cpu time :   113.0 secs   av.it.:   9.9
      thresh= 1.592E-05 alpha_mix =  0.700 |ddv_scf|^2 =  1.947E-11

      iter #   5 total cpu time :   114.6 secs   av.it.:  10.0
      thresh= 4.413E-07 alpha_mix =  0.700 |ddv_scf|^2 =  1.318E-13

      iter #   6 total cpu time :   116.2 secs   av.it.:  10.1
      thresh= 3.631E-08 alpha_mix =  0.700 |ddv_scf|^2 =  1.902E-15

      iter #   7 total cpu time :   118.0 secs   av.it.:   9.9
      thresh= 4.361E-09 alpha_mix =  0.700 |ddv_scf|^2 =  9.305E-18

     End of self-consistent calculation

     Convergence has been achieved 


     Representation #  6 mode #   6

     Self-consistent Calculation

      iter #   1 total cpu time :   119.6 secs   av.it.:   7.7
      thresh= 1.000E-02 alpha_mix =  0.700 |ddv_scf|^2 =  1.036E-05

      iter #   2 total cpu time :   121.4 secs   av.it.:  10.5
      thresh= 3.218E-04 alpha_mix =  0.700 |ddv_scf|^2 =  3.131E-06

      iter #   3 total cpu time :   123.0 secs   av.it.:  10.0
      thresh= 1.769E-04 alpha_mix =  0.700 |ddv_scf|^2 =  4.720E-09

      iter #   4 total cpu time :   124.6 secs   av.it.:  10.0
      thresh= 6.870E-06 alpha_mix =  0.700 |ddv_scf|^2 =  1.914E-11

      iter #   5 total cpu time :   126.2 secs   av.it.:  10.3
      thresh= 4.375E-07 alpha_mix =  0.700 |ddv_scf|^2 =  1.750E-13

      iter #   6 total cpu time :   127.8 secs   av.it.:   9.6
      thresh= 4.183E-08 alpha_mix =  0.700 |ddv_scf|^2 =  4.856E-15

      iter #   7 total cpu time :   129.4 secs   av.it.:  10.4
      thresh= 6.968E-09 alpha_mix =  0.700 |ddv_scf|^2 =  8.992E-18

     End of self-consistent calculation

     Convergence has been achieved 
 
     Number of q in the star =    3
     List of q in the star:
          1   0.000000000   0.192450090   0.000000000
          2   0.166666667  -0.096225045   0.000000000
          3  -0.166666667  -0.096225045   0.000000000
     In addition there is the -q list: 
          1   0.000000000  -0.192450090   0.000000000
          2  -0.166666667   0.096225045   0.000000000
          3   0.166666667   0.096225045   0.000000000

     Diagonalizing the dynamical matrix

     q = (    0.000000000   0.192450090   0.000000000 ) 

 **************************************************************************
     freq (    1) =       1.172692 [THz] =      39.116793 [cm-1]
     freq (    2) =       8.666078 [THz] =     289.069247 [cm-1]
     freq (    3) =      14.497893 [THz] =     483.597671 [cm-1]
     freq (    4) =      23.156248 [THz] =     772.409278 [cm-1]
     freq (    5) =      39.334228 [THz] =    1312.048621 [cm-1]
     freq (    6) =      45.200359 [THz] =    1507.721680 [cm-1]
 **************************************************************************

     Mode symmetry, C_2v (mm2)  point group:

     freq (  1 -  1) =         39.1  [cm-1]   --> B_2  D_4  S_4      
     freq (  2 -  2) =        289.1  [cm-1]   --> B_1  D_3  S_3      
     freq (  3 -  3) =        483.6  [cm-1]   --> A_1  D_1  S_1      
     freq (  4 -  4) =        772.4  [cm-1]   --> B_2  D_4  S_4      
     freq (  5 -  5) =       1312.0  [cm-1]   --> B_1  D_3  S_3      
     freq (  6 -  6) =       1507.7  [cm-1]   --> A_1  D_1  S_1      

     Calculation of q =    0.0000000   0.3849002   0.0000000
 
     Parallelization info
     --------------------
     sticks:   dense  smooth     PW     G-vecs:    dense   smooth      PW
     Min          84      42     15                 7714     2732     559
     Max          85      44     16                 7737     2740     572
     Sum         673     349    121                61757    21901    4521
 

     Title: 
     default                                                                    


     bravais-lattice index     =            4
     lattice parameter (alat)  =       4.7419  a.u.
     unit-cell volume          =     397.0601 (a.u.)^3
     number of atoms/cell      =            2
     number of atomic types    =            2
     number of electrons       =         8.00
     number of Kohn-Sham states=            4
     kinetic-energy cutoff     =      55.0000  Ry
     charge density cutoff     =     440.0000  Ry
     Exchange-correlation      = PBE ( 1  4  3  4 0 0)

     celldm(1)=   4.741900  celldm(2)=   0.000000  celldm(3)=   4.300000
     celldm(4)=   0.000000  celldm(5)=   0.000000  celldm(6)=   0.000000

     crystal axes: (cart. coord. in units of alat)
               a(1) = (   1.000000   0.000000   0.000000 )  
               a(2) = (  -0.500000   0.866025   0.000000 )  
               a(3) = (   0.000000   0.000000   4.300000 )  

     reciprocal axes: (cart. coord. in units 2 pi/alat)
               b(1) = (  1.000000  0.577350  0.000000 )  
               b(2) = (  0.000000  1.154701  0.000000 )  
               b(3) = (  0.000000  0.000000  0.232558 )  


     PseudoPot. # 1 for B  read from file:
     ./pseudo_dir/B.pbe-n-kjpaw_psl.0.1.UPF
     MD5 check sum: ce1cfd82b228d771fe3728b6beef9a4c
     Pseudo is Ultrasoft + core correction, Zval =  3.0
     Generated using "atomic" code by A. Dal Corso v.6.3MaX
     Using radial grid of 1059 points,  4 beta functions with: 
                l(1) =   0
                l(2) =   0
                l(3) =   1
                l(4) =   1
     Q(r) pseudized with 0 coefficients 


     PseudoPot. # 2 for N  read from file:
     ./pseudo_dir/N.pbe-n-kjpaw_psl.0.1.UPF
     MD5 check sum: 5f964142c164ed943b244cf6ba502af7
     Pseudo is Projector augmented-wave + core cor, Zval =  5.0
     Generated using "atomic" code by A. Dal Corso v.6.3
     Shape of augmentation charge: PSQ
     Using radial grid of 1085 points,  4 beta functions with: 
                l(1) =   0
                l(2) =   0
                l(3) =   1
                l(4) =   1
     Q(r) pseudized with 0 coefficients 


     atomic species   valence    mass     pseudopotential
        B              3.00    10.81000     B ( 1.00)
        N              5.00    14.00674     N ( 1.00)

     12 Sym. Ops. (no inversion) found



   Cartesian axes

     site n.     atom                  positions (alat units)
         1           B   tau(   1) = (   0.0000000   0.2886751   0.0000000  )
         2           N   tau(   2) = (   0.0000000  -0.2886751   0.0000000  )

     number of k points=    72
                       cart. coord. in units 2pi/alat
        k(    1) = (   0.0000000   0.0000000   0.0000000), wk =   0.0312500
        k(    2) = (   0.0000000   0.3849002   0.0000000), wk =   0.0000000
        k(    3) = (   0.0000000   0.1443376   0.0000000), wk =   0.0312500
        k(    4) = (   0.0000000   0.5292377   0.0000000), wk =   0.0000000
        k(    5) = (   0.0000000   0.2886751   0.0000000), wk =   0.0312500
        k(    6) = (   0.0000000   0.6735753   0.0000000), wk =   0.0000000
        k(    7) = (   0.0000000   0.4330127   0.0000000), wk =   0.0312500
        k(    8) = (   0.0000000   0.8179129   0.0000000), wk =   0.0000000
        k(    9) = (   0.0000000  -0.5773503   0.0000000), wk =   0.0312500
        k(   10) = (   0.0000000  -0.1924501   0.0000000), wk =   0.0000000
        k(   11) = (   0.1250000   0.2165064   0.0000000), wk =   0.0625000
        k(   12) = (   0.1250000   0.6014065   0.0000000), wk =   0.0000000
        k(   13) = (   0.1250000   0.3608439   0.0000000), wk =   0.0625000
        k(   14) = (   0.1250000   0.7457441   0.0000000), wk =   0.0000000
        k(   15) = (   0.1250000   0.5051815   0.0000000), wk =   0.0625000
        k(   16) = (   0.1250000   0.8900817   0.0000000), wk =   0.0000000
        k(   17) = (   0.2500000   0.4330127   0.0000000), wk =   0.0625000
        k(   18) = (   0.2500000   0.8179129   0.0000000), wk =   0.0000000
        k(   19) = (   0.2500000   0.5773503   0.0000000), wk =   0.0625000
        k(   20) = (   0.2500000   0.9622504   0.0000000), wk =   0.0000000
        k(   21) = (   0.1250000  -0.0721688   0.0000000), wk =   0.0625000
        k(   22) = (   0.1250000   0.3127314   0.0000000), wk =   0.0000000
        k(   23) = (   0.0000000  -0.1443376   0.0000000), wk =   0.0312500
        k(   24) = (   0.0000000   0.2405626   0.0000000), wk =   0.0000000
        k(   25) = (  -0.1250000   0.0721688   0.0000000), wk =   0.0625000
        k(   26) = (  -0.1250000   0.4570690   0.0000000), wk =   0.0000000
        k(   27) = (   0.2500000  -0.1443376   0.0000000), wk =   0.0625000
        k(   28) = (   0.2500000   0.2405626   0.0000000), wk =   0.0000000
        k(   29) = (   0.0000000  -0.2886751   0.0000000), wk =   0.0312500
        k(   30) = (   0.0000000   0.0962250   0.0000000), wk =   0.0000000
        k(   31) = (  -0.2500000   0.1443376   0.0000000), wk =   0.0625000
        k(   32) = (  -0.2500000   0.5292377   0.0000000), wk =   0.0000000
        k(   33) = (   0.3750000  -0.2165064   0.0000000), wk =   0.0625000
        k(   34) = (   0.3750000   0.1683938   0.0000000), wk =   0.0000000
        k(   35) = (   0.0000000  -0.4330127   0.0000000), wk =   0.0312500
        k(   36) = (   0.0000000  -0.0481125   0.0000000), wk =   0.0000000
        k(   37) = (  -0.3750000   0.2165064   0.0000000), wk =   0.0625000
        k(   38) = (  -0.3750000   0.6014065   0.0000000), wk =   0.0000000
        k(   39) = (  -0.5000000   0.2886751   0.0000000), wk =   0.0625000
        k(   40) = (  -0.5000000   0.6735753   0.0000000), wk =   0.0000000
        k(   41) = (   0.1250000  -0.2165064   0.0000000), wk =   0.0625000
        k(   42) = (   0.1250000   0.1683938   0.0000000), wk =   0.0000000
        k(   43) = (  -0.2500000   0.0000000   0.0000000), wk =   0.0625000
        k(   44) = (  -0.2500000   0.3849002   0.0000000), wk =   0.0000000
        k(   45) = (   0.2500000  -0.2886751   0.0000000), wk =   0.0625000
        k(   46) = (   0.2500000   0.0962250   0.0000000), wk =   0.0000000
        k(   47) = (  -0.3750000  -0.0721688   0.0000000), wk =   0.0625000
        k(   48) = (  -0.3750000   0.3127314   0.0000000), wk =   0.0000000
        k(   49) = (  -0.1250000  -0.3608439   0.0000000), wk =   0.0625000
        k(   50) = (  -0.1250000   0.0240563   0.0000000), wk =   0.0000000
        k(   51) = (  -0.2500000   0.2886751   0.0000000), wk =   0.0625000
        k(   52) = (  -0.2500000   0.6735753   0.0000000), wk =   0.0000000
        k(   53) = (   0.3750000   0.0721688   0.0000000), wk =   0.0625000
        k(   54) = (   0.3750000   0.4570690   0.0000000), wk =   0.0000000
        k(   55) = (   0.3750000  -0.3608439   0.0000000), wk =   0.0625000
        k(   56) = (   0.3750000   0.0240563   0.0000000), wk =   0.0000000
        k(   57) = (  -0.5000000  -0.1443376   0.0000000), wk =   0.0625000
        k(   58) = (  -0.5000000   0.2405626   0.0000000), wk =   0.0000000
        k(   59) = (  -0.1250000  -0.5051815   0.0000000), wk =   0.0625000
        k(   60) = (  -0.1250000  -0.1202813   0.0000000), wk =   0.0000000
        k(   61) = (  -0.3750000   0.3608439   0.0000000), wk =   0.0625000
        k(   62) = (  -0.3750000   0.7457441   0.0000000), wk =   0.0000000
        k(   63) = (   0.5000000   0.1443376   0.0000000), wk =   0.0625000
        k(   64) = (   0.5000000   0.5292377   0.0000000), wk =   0.0000000
        k(   65) = (   0.2500000  -0.4330127   0.0000000), wk =   0.0625000
        k(   66) = (   0.2500000  -0.0481125   0.0000000), wk =   0.0000000
        k(   67) = (  -0.5000000   0.0000000   0.0000000), wk =   0.0625000
        k(   68) = (  -0.5000000   0.3849002   0.0000000), wk =   0.0000000
        k(   69) = (   0.3750000  -0.5051815   0.0000000), wk =   0.0625000
        k(   70) = (   0.3750000  -0.1202813   0.0000000), wk =   0.0000000
        k(   71) = (  -0.6250000  -0.0721688   0.0000000), wk =   0.0625000
        k(   72) = (  -0.6250000   0.3127314   0.0000000), wk =   0.0000000

     Dense  grid:    61757 G-vectors     FFT dimensions: (  32,  32, 144)

     Smooth grid:    21901 G-vectors     FFT dimensions: (  24,  24, 100)

     Estimated max dynamical RAM per process >       8.60 MB

     Estimated total dynamical RAM >      68.77 MB
 ----2D----2D----2D----2D----2D----2D----2D----2D----2D----2D----2D----2D
  The code is running with the 2D cutoff
  Please refer to:
  Sohier, T., Calandra, M., & Mauri, F. (2017), 
  Density functional perturbation theory for gated two-dimensional heterostructu
 res:
  Theoretical developments and application to flexural phonons in graphene.
  Physical Review B, 96(7), 75448. https://doi.org/10.1103/PhysRevB.96.075448
 ----2D----2D----2D----2D----2D----2D----2D----2D----2D----2D----2D----2D

     Check: negative core charge=   -0.000002

     The potential is recalculated from file :
     /scratch/aurru/bn_scf_less_q/_ph0/bn.save/charge-density


     negative rho (up, down):  1.391E-05 0.000E+00
     Starting wfcs are    8 atomic wfcs
     Checking if some PAW data can be deallocated... 

     Band Structure Calculation
     Davidson diagonalization with overlap

     ethr =  1.25E-10,  avg # of iterations = 17.8

     total cpu time spent up to now is        9.1 secs

     End of band structure calculation

          k = 0.0000 0.0000 0.0000 (  2761 PWs)   bands (ev):

   -23.4517 -11.0293  -7.1763  -7.1763

          k = 0.0000 0.3849 0.0000 (  2740 PWs)   bands (ev):

   -21.5185 -12.6844  -9.4052  -8.3893

          k = 0.0000 0.1443 0.0000 (  2765 PWs)   bands (ev):

   -23.1540 -10.6295  -8.3598  -7.7165

          k = 0.0000 0.5292 0.0000 (  2724 PWs)   bands (ev):

   -20.4829 -14.5306  -9.9193  -6.8705

          k = 0.0000 0.2887 0.0000 (  2740 PWs)   bands (ev):

   -22.3039 -10.9147  -9.4770  -8.7826

          k = 0.0000 0.6736 0.0000 (  2722 PWs)   bands (ev):

   -20.7472 -14.0996  -9.8136  -7.2742

          k = 0.0000 0.4330 0.0000 (  2722 PWs)   bands (ev):

   -21.1123 -13.4617  -9.6405  -7.8108

          k = 0.0000 0.8179 0.0000 (  2736 PWs)   bands (ev):

   -21.9242 -11.8210  -9.1154  -8.9551

          k = 0.0000-0.5774 0.0000 (  2728 PWs)   bands (ev):

   -20.3845 -14.6850  -9.9549  -6.7155

          k = 0.0000-0.1925 0.0000 (  2756 PWs)   bands (ev):

   -22.9270 -10.3233  -9.1371  -8.0579

          k = 0.1250 0.2165 0.0000 (  2751 PWs)   bands (ev):

   -22.5783  -9.9799  -9.8513  -8.7709

          k = 0.1250 0.6014 0.0000 (  2726 PWs)   bands (ev):

   -20.2662 -14.4682 -10.7661  -6.5423

          k = 0.1250 0.3608 0.0000 (  2742 PWs)   bands (ev):

   -21.5335 -12.2724 -10.0122  -8.4130

          k = 0.1250 0.7457 0.0000 (  2727 PWs)   bands (ev):

   -21.1351 -13.0235 -10.3102  -7.8481

          k = 0.1250 0.5052 0.0000 (  2724 PWs)   bands (ev):

   -20.4460 -14.1887 -10.6894  -6.8258

          k = 0.1250 0.8901 0.0000 (  2745 PWs)   bands (ev):

   -22.2718 -10.7059  -9.4336  -9.2266

          k = 0.2500 0.4330 0.0000 (  2726 PWs)   bands (ev):

   -20.5043 -13.4043 -11.6889  -6.9276

          k = 0.2500 0.8179 0.0000 (  2725 PWs)   bands (ev):

   -21.1977 -12.6805 -10.6058  -7.9395

          k = 0.2500 0.5774 0.0000 (  2706 PWs)   bands (ev):

   -19.9254 -13.9948 -12.3719  -6.0095

          k = 0.2500 0.9623 0.0000 (  2742 PWs)   bands (ev):

   -22.0960 -11.3778  -9.1922  -9.0460

          k = 0.1250-0.0722 0.0000 (  2765 PWs)   bands (ev):

   -23.1540 -10.6295  -8.3598  -7.7165

          k = 0.1250 0.3127 0.0000 (  2736 PWs)   bands (ev):

   -21.9192 -11.4840  -9.6477  -8.9494

          k = 0.0000-0.1443 0.0000 (  2765 PWs)   bands (ev):

   -23.1540 -10.6295  -8.3598  -7.7165

          k = 0.0000 0.2406 0.0000 (  2754 PWs)   bands (ev):

   -22.6415 -10.0056  -9.9368  -8.4228

          k =-0.1250 0.0722 0.0000 (  2765 PWs)   bands (ev):

   -23.1540 -10.6295  -8.3598  -7.7165

          k =-0.1250 0.4571 0.0000 (  2727 PWs)   bands (ev):

   -20.7563 -13.6835 -10.5369  -7.2958

          k = 0.2500-0.1443 0.0000 (  2740 PWs)   bands (ev):

   -22.3039 -10.9147  -9.4770  -8.7826

          k = 0.2500 0.2406 0.0000 (  2741 PWs)   bands (ev):

   -21.8367 -11.8358  -9.4714  -8.8347

          k = 0.0000-0.2887 0.0000 (  2740 PWs)   bands (ev):

   -22.3039 -10.9147  -9.4770  -8.7826

          k = 0.0000 0.0962 0.0000 (  2765 PWs)   bands (ev):

   -23.3187 -10.8508  -7.7332  -7.4329

          k =-0.2500 0.1443 0.0000 (  2740 PWs)   bands (ev):

   -22.3039 -10.9147  -9.4770  -8.7826

          k =-0.2500 0.5292 0.0000 (  2714 PWs)   bands (ev):

   -20.0004 -13.9161 -12.2961  -6.1352

          k = 0.3750-0.2165 0.0000 (  2722 PWs)   bands (ev):

   -21.1123 -13.4617  -9.6405  -7.8108

          k = 0.3750 0.1684 0.0000 (  2728 PWs)   bands (ev):

   -21.2930 -13.0778  -9.6288  -8.0705

          k = 0.0000-0.4330 0.0000 (  2722 PWs)   bands (ev):

   -21.1123 -13.4617  -9.6405  -7.8108

          k = 0.0000-0.0481 0.0000 (  2773 PWs)   bands (ev):

   -23.4183 -10.9846  -7.3209  -7.2433

          k =-0.3750 0.2165 0.0000 (  2722 PWs)   bands (ev):

   -21.1123 -13.4617  -9.6405  -7.8108

          k =-0.3750 0.6014 0.0000 (  2722 PWs)   bands (ev):

   -19.8584 -13.7964 -12.7619  -5.9002

          k =-0.5000 0.2887 0.0000 (  2728 PWs)   bands (ev):

   -20.3845 -14.6850  -9.9549  -6.7155

          k =-0.5000 0.6736 0.0000 (  2726 PWs)   bands (ev):

   -20.4755 -13.8635 -11.1248  -6.8777

          k = 0.1250-0.2165 0.0000 (  2751 PWs)   bands (ev):

   -22.5783  -9.9799  -9.8513  -8.7709

          k = 0.1250 0.1684 0.0000 (  2754 PWs)   bands (ev):

   -22.8307 -10.1933  -9.3351  -8.3247

          k =-0.2500 0.0000 0.0000 (  2751 PWs)   bands (ev):

   -22.5783  -9.9799  -9.8513  -8.7709

          k =-0.2500 0.3849 0.0000 (  2720 PWs)   bands (ev):

   -20.8462 -13.0585 -11.1855  -7.4341

          k = 0.2500-0.2887 0.0000 (  2742 PWs)   bands (ev):

   -21.5335 -12.2724 -10.0122  -8.4130

          k = 0.2500 0.0962 0.0000 (  2752 PWs)   bands (ev):

   -22.4554 -10.4771  -9.6839  -8.6921

          k =-0.3750-0.0722 0.0000 (  2742 PWs)   bands (ev):

   -21.5335 -12.2724 -10.0122  -8.4130

          k =-0.3750 0.3127 0.0000 (  2729 PWs)   bands (ev):

   -20.6752 -14.0357 -10.1990  -7.1703

          k =-0.1250-0.3608 0.0000 (  2742 PWs)   bands (ev):

   -21.5335 -12.2724 -10.0122  -8.4130

          k =-0.1250 0.0241 0.0000 (  2763 PWs)   bands (ev):

   -23.2197 -10.7177  -8.1007  -7.6264

          k =-0.2500 0.2887 0.0000 (  2742 PWs)   bands (ev):

   -21.5335 -12.2724 -10.0122  -8.4130

          k =-0.2500 0.6736 0.0000 (  2724 PWs)   bands (ev):

   -20.2075 -13.7030 -12.0673  -6.4698

          k = 0.3750 0.0722 0.0000 (  2742 PWs)   bands (ev):

   -21.5335 -12.2724 -10.0122  -8.4130

          k = 0.3750 0.4571 0.0000 (  2720 PWs)   bands (ev):

   -20.0539 -14.1650 -11.8339  -6.2162

          k = 0.3750-0.3608 0.0000 (  2724 PWs)   bands (ev):

   -20.4460 -14.1887 -10.6894  -6.8258

          k = 0.3750 0.0241 0.0000 (  2739 PWs)   bands (ev):

   -21.5835 -12.0014 -10.2132  -8.4837

          k =-0.5000-0.1443 0.0000 (  2724 PWs)   bands (ev):

   -20.4460 -14.1887 -10.6894  -6.8258

          k =-0.5000 0.2406 0.0000 (  2725 PWs)   bands (ev):

   -20.3930 -14.6259 -10.0475  -6.7309

          k =-0.1250-0.5052 0.0000 (  2724 PWs)   bands (ev):

   -20.4460 -14.1887 -10.6894  -6.8258

          k =-0.1250-0.1203 0.0000 (  2755 PWs)   bands (ev):

   -23.0237 -10.4539  -8.7882  -7.9534

          k =-0.3750 0.3608 0.0000 (  2724 PWs)   bands (ev):

   -20.4460 -14.1887 -10.6894  -6.8258

          k =-0.3750 0.7457 0.0000 (  2719 PWs)   bands (ev):

   -20.2328 -14.2337 -11.2529  -6.4979

          k = 0.5000 0.1443 0.0000 (  2724 PWs)   bands (ev):

   -20.4460 -14.1887 -10.6894  -6.8258

          k = 0.5000 0.5292 0.0000 (  2726 PWs)   bands (ev):

   -20.4967 -13.5509 -11.5146  -6.9144

          k = 0.2500-0.4330 0.0000 (  2726 PWs)   bands (ev):

   -20.5043 -13.4043 -11.6889  -6.9276

          k = 0.2500-0.0481 0.0000 (  2755 PWs)   bands (ev):

   -22.5475 -10.1266  -9.8093  -8.7280

          k =-0.5000 0.0000 0.0000 (  2726 PWs)   bands (ev):

   -20.5043 -13.4043 -11.6889  -6.9276

          k =-0.5000 0.3849 0.0000 (  2721 PWs)   bands (ev):

   -20.4157 -14.4544 -10.3078  -6.7718

          k = 0.3750-0.5052 0.0000 (  2706 PWs)   bands (ev):

   -19.9254 -13.9948 -12.3719  -6.0095

          k = 0.3750-0.1203 0.0000 (  2736 PWs)   bands (ev):

   -21.4354 -12.6649  -9.7755  -8.2737

          k =-0.6250-0.0722 0.0000 (  2706 PWs)   bands (ev):

   -19.9254 -13.9948 -12.3719  -6.0095

          k =-0.6250 0.3127 0.0000 (  2728 PWs)   bands (ev):

   -20.9024 -13.7878  -9.8354  -7.5056

     highest occupied level (ev):    -6.0095

     Writing output data file bn.save/

     default                                                                    

     bravais-lattice index     =            4
     lattice parameter (alat)  =       4.7419  a.u.
     unit-cell volume          =     397.0601 (a.u.)^3
     number of atoms/cell      =            2
     number of atomic types    =            2
     kinetic-energy cut-off    =      55.0000  Ry
     charge density cut-off    =     440.0000  Ry
     convergence threshold     =      1.0E-15
     beta                      =       0.7000
     number of iterations used =            4
     Exchange-correlation      = PBE ( 1  4  3  4 0 0)


     celldm(1)=    4.74190  celldm(2)=    0.00000  celldm(3)=    4.30000
     celldm(4)=    0.00000  celldm(5)=    0.00000  celldm(6)=    0.00000

     crystal axes: (cart. coord. in units of alat)
               a(1) = (  1.0000  0.0000  0.0000 )  
               a(2) = ( -0.5000  0.8660  0.0000 )  
               a(3) = (  0.0000  0.0000  4.3000 )  

     reciprocal axes: (cart. coord. in units 2 pi/alat)
               b(1) = (  1.0000  0.5774  0.0000 )  
               b(2) = (  0.0000  1.1547  0.0000 )  
               b(3) = (  0.0000  0.0000  0.2326 )  


     Atoms inside the unit cell: 

     Cartesian axes

     site n.  atom      mass           positions (alat units)
        1     B   10.8100   tau(    1) = (    0.00000    0.28868    0.00000  )
        2     N   14.0067   tau(    2) = (    0.00000   -0.28868    0.00000  )

     Computing dynamical matrix for 
                    q = (   0.0000000   0.3849002   0.0000000 )
 
      4 Sym.Ops. (no q -> -q+G )


     G cutoff =  250.6096  (   7718 G-vectors)     FFT grid: ( 32, 32,144)
     G cutoff =  125.3048  (   2738 G-vectors)  smooth grid: ( 24, 24,100)
     number of k points=    72

     PseudoPot. # 1 for B  read from file:
     ./pseudo_dir/B.pbe-n-kjpaw_psl.0.1.UPF
     MD5 check sum: ce1cfd82b228d771fe3728b6beef9a4c
     Pseudo is Ultrasoft + core correction, Zval =  3.0
     Generated using "atomic" code by A. Dal Corso v.6.3MaX
     Using radial grid of 1059 points,  4 beta functions with: 
                l(1) =   0
                l(2) =   0
                l(3) =   1
                l(4) =   1
     Q(r) pseudized with 0 coefficients 


     PseudoPot. # 2 for N  read from file:
     ./pseudo_dir/N.pbe-n-kjpaw_psl.0.1.UPF
     MD5 check sum: 5f964142c164ed943b244cf6ba502af7
     Pseudo is Projector augmented-wave + core cor, Zval =  5.0
     Generated using "atomic" code by A. Dal Corso v.6.3
     Shape of augmentation charge: PSQ
     Using radial grid of 1085 points,  4 beta functions with: 
                l(1) =   0
                l(2) =   0
                l(3) =   1
                l(4) =   1
     Q(r) pseudized with 0 coefficients 


     Mode symmetry, C_2v (mm2)  point group:


     Atomic displacements:
     There are   6 irreducible representations

     Representation     1      1 modes -A_1  D_1  S_1  To be done

     Representation     2      1 modes -A_1  D_1  S_1  To be done

     Representation     3      1 modes -B_1  D_3  S_3  To be done

     Representation     4      1 modes -B_1  D_3  S_3  To be done

     Representation     5      1 modes -B_2  D_4  S_4  To be done

     Representation     6      1 modes -B_2  D_4  S_4  To be done



     Alpha used in Ewald sum =   2.8000

     negative rho (up, down):  1.391E-05 0.000E+00
     PHONON       :   1m58.78s CPU   2m17.64s WALL



     Representation #  1 mode #   1

     Self-consistent Calculation

      iter #   1 total cpu time :   139.1 secs   av.it.:   7.1
      thresh= 1.000E-02 alpha_mix =  0.700 |ddv_scf|^2 =  3.541E-06

      iter #   2 total cpu time :   141.2 secs   av.it.:  11.1
      thresh= 1.882E-04 alpha_mix =  0.700 |ddv_scf|^2 =  3.143E-06

      iter #   3 total cpu time :   143.2 secs   av.it.:  10.9
      thresh= 1.773E-04 alpha_mix =  0.700 |ddv_scf|^2 =  1.696E-07

      iter #   4 total cpu time :   144.9 secs   av.it.:  10.8
      thresh= 4.119E-05 alpha_mix =  0.700 |ddv_scf|^2 =  6.078E-09

      iter #   5 total cpu time :   146.7 secs   av.it.:  11.2
      thresh= 7.796E-06 alpha_mix =  0.700 |ddv_scf|^2 =  1.292E-10

      iter #   6 total cpu time :   148.4 secs   av.it.:  11.0
      thresh= 1.137E-06 alpha_mix =  0.700 |ddv_scf|^2 =  8.006E-14

      iter #   7 total cpu time :   150.6 secs   av.it.:  11.4
      thresh= 2.829E-08 alpha_mix =  0.700 |ddv_scf|^2 =  5.317E-15

      iter #   8 total cpu time :   152.5 secs   av.it.:  11.1
      thresh= 7.292E-09 alpha_mix =  0.700 |ddv_scf|^2 =  1.154E-16

     End of self-consistent calculation

     Convergence has been achieved 


     Representation #  2 mode #   2

     Self-consistent Calculation

      iter #   1 total cpu time :   154.1 secs   av.it.:   7.8
      thresh= 1.000E-02 alpha_mix =  0.700 |ddv_scf|^2 =  1.404E-05

      iter #   2 total cpu time :   155.9 secs   av.it.:  11.1
      thresh= 3.746E-04 alpha_mix =  0.700 |ddv_scf|^2 =  1.583E-05

      iter #   3 total cpu time :   157.9 secs   av.it.:  10.5
      thresh= 3.979E-04 alpha_mix =  0.700 |ddv_scf|^2 =  6.828E-08

      iter #   4 total cpu time :   159.7 secs   av.it.:  11.4
      thresh= 2.613E-05 alpha_mix =  0.700 |ddv_scf|^2 =  7.319E-09

      iter #   5 total cpu time :   161.5 secs   av.it.:  11.1
      thresh= 8.555E-06 alpha_mix =  0.700 |ddv_scf|^2 =  3.013E-11

      iter #   6 total cpu time :   163.2 secs   av.it.:  10.9
      thresh= 5.489E-07 alpha_mix =  0.700 |ddv_scf|^2 =  8.332E-13

      iter #   7 total cpu time :   164.9 secs   av.it.:  10.9
      thresh= 9.128E-08 alpha_mix =  0.700 |ddv_scf|^2 =  1.753E-14

      iter #   8 total cpu time :   166.7 secs   av.it.:  11.2
      thresh= 1.324E-08 alpha_mix =  0.700 |ddv_scf|^2 =  5.849E-16

     End of self-consistent calculation

     Convergence has been achieved 


     Representation #  3 mode #   3

     Self-consistent Calculation

      iter #   1 total cpu time :   168.2 secs   av.it.:   7.3
      thresh= 1.000E-02 alpha_mix =  0.700 |ddv_scf|^2 =  4.714E-07

      iter #   2 total cpu time :   170.0 secs   av.it.:  11.5
      thresh= 6.866E-05 alpha_mix =  0.700 |ddv_scf|^2 =  2.273E-09

      iter #   3 total cpu time :   171.8 secs   av.it.:  11.3
      thresh= 4.767E-06 alpha_mix =  0.700 |ddv_scf|^2 =  9.507E-11

      iter #   4 total cpu time :   174.1 secs   av.it.:  10.8
      thresh= 9.750E-07 alpha_mix =  0.700 |ddv_scf|^2 =  7.980E-13

      iter #   5 total cpu time :   175.9 secs   av.it.:  10.7
      thresh= 8.933E-08 alpha_mix =  0.700 |ddv_scf|^2 =  2.238E-15

      iter #   6 total cpu time :   177.9 secs   av.it.:  11.5
      thresh= 4.730E-09 alpha_mix =  0.700 |ddv_scf|^2 =  9.775E-18

     End of self-consistent calculation

     Convergence has been achieved 


     Representation #  4 mode #   4

     Self-consistent Calculation

      iter #   1 total cpu time :   179.4 secs   av.it.:   6.7
      thresh= 1.000E-02 alpha_mix =  0.700 |ddv_scf|^2 =  6.497E-07

      iter #   2 total cpu time :   181.1 secs   av.it.:   9.9
      thresh= 8.061E-05 alpha_mix =  0.700 |ddv_scf|^2 =  5.623E-08

      iter #   3 total cpu time :   182.8 secs   av.it.:   9.1
      thresh= 2.371E-05 alpha_mix =  0.700 |ddv_scf|^2 =  6.544E-11

      iter #   4 total cpu time :   184.6 secs   av.it.:  10.9
      thresh= 8.089E-07 alpha_mix =  0.700 |ddv_scf|^2 =  1.937E-13

      iter #   5 total cpu time :   186.4 secs   av.it.:  11.1
      thresh= 4.402E-08 alpha_mix =  0.700 |ddv_scf|^2 =  1.095E-15

      iter #   6 total cpu time :   188.5 secs   av.it.:  11.2
      thresh= 3.308E-09 alpha_mix =  0.700 |ddv_scf|^2 =  1.028E-17

     End of self-consistent calculation

     Convergence has been achieved 


     Representation #  5 mode #   5

     Self-consistent Calculation

      iter #   1 total cpu time :   189.8 secs   av.it.:   6.7
      thresh= 1.000E-02 alpha_mix =  0.700 |ddv_scf|^2 =  1.687E-06

      iter #   2 total cpu time :   191.5 secs   av.it.:   9.8
      thresh= 1.299E-04 alpha_mix =  0.700 |ddv_scf|^2 =  1.471E-07

      iter #   3 total cpu time :   193.1 secs   av.it.:   9.9
      thresh= 3.835E-05 alpha_mix =  0.700 |ddv_scf|^2 =  2.044E-09

      iter #   4 total cpu time :   194.8 secs   av.it.:  10.7
      thresh= 4.521E-06 alpha_mix =  0.700 |ddv_scf|^2 =  2.401E-12

      iter #   5 total cpu time :   196.5 secs   av.it.:  10.8
      thresh= 1.549E-07 alpha_mix =  0.700 |ddv_scf|^2 =  2.605E-14

      iter #   6 total cpu time :   198.3 secs   av.it.:  10.7
      thresh= 1.614E-08 alpha_mix =  0.700 |ddv_scf|^2 =  2.046E-16

     End of self-consistent calculation

     Convergence has been achieved 


     Representation #  6 mode #   6

     Self-consistent Calculation

      iter #   1 total cpu time :   199.9 secs   av.it.:   7.4
      thresh= 1.000E-02 alpha_mix =  0.700 |ddv_scf|^2 =  1.832E-06

      iter #   2 total cpu time :   201.6 secs   av.it.:  10.8
      thresh= 1.354E-04 alpha_mix =  0.700 |ddv_scf|^2 =  9.505E-08

      iter #   3 total cpu time :   203.4 secs   av.it.:  10.7
      thresh= 3.083E-05 alpha_mix =  0.700 |ddv_scf|^2 =  4.077E-10

      iter #   4 total cpu time :   205.2 secs   av.it.:  10.2
      thresh= 2.019E-06 alpha_mix =  0.700 |ddv_scf|^2 =  5.431E-12

      iter #   5 total cpu time :   206.9 secs   av.it.:  10.6
      thresh= 2.330E-07 alpha_mix =  0.700 |ddv_scf|^2 =  4.973E-14

      iter #   6 total cpu time :   208.7 secs   av.it.:  10.2
      thresh= 2.230E-08 alpha_mix =  0.700 |ddv_scf|^2 =  1.756E-16

     End of self-consistent calculation

     Convergence has been achieved 
 
     Number of q in the star =    3
     List of q in the star:
          1   0.000000000   0.384900179   0.000000000
          2   0.333333333  -0.192450090   0.000000000
          3  -0.333333333  -0.192450090   0.000000000
     In addition there is the -q list: 
          1   0.000000000  -0.384900179   0.000000000
          2  -0.333333333   0.192450090   0.000000000
          3   0.333333333   0.192450090   0.000000000

     Diagonalizing the dynamical matrix

     q = (    0.000000000   0.384900179   0.000000000 ) 

 **************************************************************************
     freq (    1) =       5.792344 [THz] =     193.211807 [cm-1]
     freq (    2) =      14.486811 [THz] =     483.228016 [cm-1]
     freq (    3) =      20.920810 [THz] =     697.843122 [cm-1]
     freq (    4) =      26.829231 [THz] =     894.926804 [cm-1]
     freq (    5) =      37.806244 [THz] =    1261.080544 [cm-1]
     freq (    6) =      42.640283 [THz] =    1422.326731 [cm-1]
 **************************************************************************

     Mode symmetry, C_2v (mm2)  point group:

     freq (  1 -  1) =        193.2  [cm-1]   --> B_2  D_4  S_4      
     freq (  2 -  2) =        483.2  [cm-1]   --> B_1  D_3  S_3      
     freq (  3 -  3) =        697.8  [cm-1]   --> B_2  D_4  S_4      
     freq (  4 -  4) =        894.9  [cm-1]   --> A_1  D_1  S_1      
     freq (  5 -  5) =       1261.1  [cm-1]   --> B_1  D_3  S_3      
     freq (  6 -  6) =       1422.3  [cm-1]   --> A_1  D_1  S_1      

     Calculation of q =    0.0000000  -0.5773503   0.0000000
 
     Parallelization info
     --------------------
     sticks:   dense  smooth     PW     G-vecs:    dense   smooth      PW
     Min          84      42     15                 7714     2732     595
     Max          85      44     16                 7737     2740     612
     Sum         673     349    121                61757    21901    4811
 

     Title: 
     default                                                                    


     bravais-lattice index     =            4
     lattice parameter (alat)  =       4.7419  a.u.
     unit-cell volume          =     397.0601 (a.u.)^3
     number of atoms/cell      =            2
     number of atomic types    =            2
     number of electrons       =         8.00
     number of Kohn-Sham states=            4
     kinetic-energy cutoff     =      55.0000  Ry
     charge density cutoff     =     440.0000  Ry
     Exchange-correlation      = PBE ( 1  4  3  4 0 0)

     celldm(1)=   4.741900  celldm(2)=   0.000000  celldm(3)=   4.300000
     celldm(4)=   0.000000  celldm(5)=   0.000000  celldm(6)=   0.000000

     crystal axes: (cart. coord. in units of alat)
               a(1) = (   1.000000   0.000000   0.000000 )  
               a(2) = (  -0.500000   0.866025   0.000000 )  
               a(3) = (   0.000000   0.000000   4.300000 )  

     reciprocal axes: (cart. coord. in units 2 pi/alat)
               b(1) = (  1.000000  0.577350  0.000000 )  
               b(2) = (  0.000000  1.154701  0.000000 )  
               b(3) = (  0.000000  0.000000  0.232558 )  


     PseudoPot. # 1 for B  read from file:
     ./pseudo_dir/B.pbe-n-kjpaw_psl.0.1.UPF
     MD5 check sum: ce1cfd82b228d771fe3728b6beef9a4c
     Pseudo is Ultrasoft + core correction, Zval =  3.0
     Generated using "atomic" code by A. Dal Corso v.6.3MaX
     Using radial grid of 1059 points,  4 beta functions with: 
                l(1) =   0
                l(2) =   0
                l(3) =   1
                l(4) =   1
     Q(r) pseudized with 0 coefficients 


     PseudoPot. # 2 for N  read from file:
     ./pseudo_dir/N.pbe-n-kjpaw_psl.0.1.UPF
     MD5 check sum: 5f964142c164ed943b244cf6ba502af7
     Pseudo is Projector augmented-wave + core cor, Zval =  5.0
     Generated using "atomic" code by A. Dal Corso v.6.3
     Shape of augmentation charge: PSQ
     Using radial grid of 1085 points,  4 beta functions with: 
                l(1) =   0
                l(2) =   0
                l(3) =   1
                l(4) =   1
     Q(r) pseudized with 0 coefficients 


     atomic species   valence    mass     pseudopotential
        B              3.00    10.81000     B ( 1.00)
        N              5.00    14.00674     N ( 1.00)

     12 Sym. Ops. (no inversion) found



   Cartesian axes

     site n.     atom                  positions (alat units)
         1           B   tau(   1) = (   0.0000000   0.2886751   0.0000000  )
         2           N   tau(   2) = (   0.0000000  -0.2886751   0.0000000  )

     number of k points=    42
                       cart. coord. in units 2pi/alat
        k(    1) = (   0.0000000   0.0000000   0.0000000), wk =   0.0312500
        k(    2) = (   0.0000000  -0.5773503   0.0000000), wk =   0.0000000
        k(    3) = (   0.0000000   0.1443376   0.0000000), wk =   0.0625000
        k(    4) = (   0.0000000  -0.4330127   0.0000000), wk =   0.0000000
        k(    5) = (   0.0000000   0.2886751   0.0000000), wk =   0.0625000
        k(    6) = (   0.0000000  -0.2886751   0.0000000), wk =   0.0000000
        k(    7) = (   0.0000000   0.4330127   0.0000000), wk =   0.0625000
        k(    8) = (   0.0000000  -0.1443376   0.0000000), wk =   0.0000000
        k(    9) = (   0.0000000  -0.5773503   0.0000000), wk =   0.0312500
        k(   10) = (   0.0000000  -1.1547005   0.0000000), wk =   0.0000000
        k(   11) = (   0.1250000   0.2165064   0.0000000), wk =   0.1250000
        k(   12) = (   0.1250000  -0.3608439   0.0000000), wk =   0.0000000
        k(   13) = (   0.1250000   0.3608439   0.0000000), wk =   0.1250000
        k(   14) = (   0.1250000  -0.2165064   0.0000000), wk =   0.0000000
        k(   15) = (   0.1250000   0.5051815   0.0000000), wk =   0.1250000
        k(   16) = (   0.1250000  -0.0721688   0.0000000), wk =   0.0000000
        k(   17) = (   0.2500000   0.4330127   0.0000000), wk =   0.1250000
        k(   18) = (   0.2500000  -0.1443376   0.0000000), wk =   0.0000000
        k(   19) = (   0.2500000   0.5773503   0.0000000), wk =   0.0625000
        k(   20) = (   0.2500000   0.0000000   0.0000000), wk =   0.0000000
        k(   21) = (   0.1250000  -0.0721688   0.0000000), wk =   0.1250000
        k(   22) = (   0.1250000  -0.6495191   0.0000000), wk =   0.0000000
        k(   23) = (   0.2500000  -0.1443376   0.0000000), wk =   0.1250000
        k(   24) = (   0.2500000  -0.7216878   0.0000000), wk =   0.0000000
        k(   25) = (   0.3750000  -0.2165064   0.0000000), wk =   0.1250000
        k(   26) = (   0.3750000  -0.7938566   0.0000000), wk =   0.0000000
        k(   27) = (  -0.5000000   0.2886751   0.0000000), wk =   0.0625000
        k(   28) = (  -0.5000000  -0.2886751   0.0000000), wk =   0.0000000
        k(   29) = (  -0.2500000   0.0000000   0.0000000), wk =   0.0625000
        k(   30) = (  -0.2500000  -0.5773503   0.0000000), wk =   0.0000000
        k(   31) = (   0.2500000  -0.2886751   0.0000000), wk =   0.1250000
        k(   32) = (   0.2500000  -0.8660254   0.0000000), wk =   0.0000000
        k(   33) = (  -0.3750000  -0.0721688   0.0000000), wk =   0.1250000
        k(   34) = (  -0.3750000  -0.6495191   0.0000000), wk =   0.0000000
        k(   35) = (   0.3750000  -0.3608439   0.0000000), wk =   0.1250000
        k(   36) = (   0.3750000  -0.9381942   0.0000000), wk =   0.0000000
        k(   37) = (  -0.5000000  -0.1443376   0.0000000), wk =   0.1250000
        k(   38) = (  -0.5000000  -0.7216878   0.0000000), wk =   0.0000000
        k(   39) = (  -0.5000000   0.0000000   0.0000000), wk =   0.0625000
        k(   40) = (  -0.5000000  -0.5773503   0.0000000), wk =   0.0000000
        k(   41) = (   0.3750000  -0.5051815   0.0000000), wk =   0.1250000
        k(   42) = (   0.3750000  -1.0825318   0.0000000), wk =   0.0000000

     Dense  grid:    61757 G-vectors     FFT dimensions: (  32,  32, 144)

     Smooth grid:    21901 G-vectors     FFT dimensions: (  24,  24, 100)

     Estimated max dynamical RAM per process >       8.61 MB

     Estimated total dynamical RAM >      68.84 MB
 ----2D----2D----2D----2D----2D----2D----2D----2D----2D----2D----2D----2D
  The code is running with the 2D cutoff
  Please refer to:
  Sohier, T., Calandra, M., & Mauri, F. (2017), 
  Density functional perturbation theory for gated two-dimensional heterostructu
 res:
  Theoretical developments and application to flexural phonons in graphene.
  Physical Review B, 96(7), 75448. https://doi.org/10.1103/PhysRevB.96.075448
 ----2D----2D----2D----2D----2D----2D----2D----2D----2D----2D----2D----2D

     Check: negative core charge=   -0.000002

     The potential is recalculated from file :
     /scratch/aurru/bn_scf_less_q/_ph0/bn.save/charge-density


     negative rho (up, down):  1.391E-05 0.000E+00
     Starting wfcs are    8 atomic wfcs
     Checking if some PAW data can be deallocated... 

     Band Structure Calculation
     Davidson diagonalization with overlap

     ethr =  1.25E-10,  avg # of iterations = 17.8

     total cpu time spent up to now is       12.1 secs

     End of band structure calculation

          k = 0.0000 0.0000 0.0000 (  2761 PWs)   bands (ev):

   -23.4517 -11.0293  -7.1763  -7.1763

          k = 0.0000-0.5774 0.0000 (  2728 PWs)   bands (ev):

   -20.3845 -14.6850  -9.9549  -6.7155

          k = 0.0000 0.1443 0.0000 (  2765 PWs)   bands (ev):

   -23.1540 -10.6295  -8.3598  -7.7165

          k = 0.0000-0.4330 0.0000 (  2722 PWs)   bands (ev):

   -21.1123 -13.4617  -9.6405  -7.8108

          k = 0.0000 0.2887 0.0000 (  2740 PWs)   bands (ev):

[...]

          k = 0.3333 1.0104 0.0000 (  2743 PWs)   bands (ev):

   -21.7018 -12.2586  -9.3626  -8.6464

          k = 0.0000-0.5774 0.0000 (  2728 PWs)   bands (ev):

   -20.3845 -14.6850  -9.9549  -6.7155

          k = 0.3333 0.0000 0.0000 (  2745 PWs)   bands (ev):

   -21.9469 -11.3336  -9.7423  -8.9879

          k = 0.1250 0.2165 0.0000 (  2751 PWs)   bands (ev):

   -22.5783  -9.9799  -9.8513  -8.7709

          k = 0.4583 0.7939 0.0000 (  2716 PWs)   bands (ev):

   -20.3193 -14.6045 -10.3443  -6.6191

          k = 0.1250 0.3608 0.0000 (  2742 PWs)   bands (ev):

   -21.5335 -12.2724 -10.0122  -8.4130

          k = 0.4583 0.9382 0.0000 (  2728 PWs)   bands (ev):

   -20.5806 -14.3277  -9.9762  -7.0230

          k = 0.1250 0.5052 0.0000 (  2724 PWs)   bands (ev):

   -20.4460 -14.1887 -10.6894  -6.8258

          k = 0.4583 1.0825 0.0000 (  2720 PWs)   bands (ev):

   -20.8153 -13.3220 -10.9096  -7.3866

          k = 0.2500 0.4330 0.0000 (  2726 PWs)   bands (ev):

   -20.5043 -13.4043 -11.6889  -6.9276

          k = 0.5833 1.0104 0.0000 (  2724 PWs)   bands (ev):

   -20.1433 -14.3668 -11.2955  -6.3531

          k = 0.2500 0.5774 0.0000 (  2706 PWs)   bands (ev):

   -19.9254 -13.9948 -12.3719  -6.0095

          k = 0.5833 1.1547 0.0000 (  2714 PWs)   bands (ev):

   -19.9828 -13.7782 -12.5069  -6.1086

          k = 0.0000-0.1443 0.0000 (  2765 PWs)   bands (ev):

   -23.1540 -10.6295  -8.3598  -7.7165

          k = 0.3333 0.4330 0.0000 (  2724 PWs)   bands (ev):

   -20.2149 -13.9435 -11.7289  -6.4771

          k = 0.0000-0.2887 0.0000 (  2740 PWs)   bands (ev):

   -22.3039 -10.9147  -9.4770  -8.7826

          k = 0.3333 0.2887 0.0000 (  2731 PWs)   bands (ev):

   -21.0346 -13.4166 -10.0202  -7.7008

          k = 0.0000-0.4330 0.0000 (  2722 PWs)   bands (ev):

   -21.1123 -13.4617  -9.6405  -7.8108

          k = 0.3333 0.1443 0.0000 (  2743 PWs)   bands (ev):

   -21.7018 -12.2586  -9.3626  -8.6464

          k =-0.1250 0.2165 0.0000 (  2751 PWs)   bands (ev):

   -22.5783  -9.9799  -9.8513  -8.7709

          k = 0.2083 0.7939 0.0000 (  2718 PWs)   bands (ev):

   -21.2189 -12.5295 -10.7435  -7.9705

          k =-0.1250 0.3608 0.0000 (  2742 PWs)   bands (ev):

   -21.5335 -12.2724 -10.0122  -8.4130

          k = 0.2083 0.9382 0.0000 (  2747 PWs)   bands (ev):

   -22.2128 -10.9751  -9.3527  -9.1174

          k =-0.1250-0.3608 0.0000 (  2742 PWs)   bands (ev):

   -21.5335 -12.2724 -10.0122  -8.4130

          k = 0.2083 0.2165 0.0000 (  2747 PWs)   bands (ev):

   -22.2128 -10.9751  -9.3527  -9.1174

          k = 0.1250-0.3608 0.0000 (  2742 PWs)   bands (ev):

   -21.5335 -12.2724 -10.0122  -8.4130

          k = 0.4583 0.2165 0.0000 (  2728 PWs)   bands (ev):

   -20.5806 -14.3277  -9.9762  -7.0230

          k =-0.1250 0.5052 0.0000 (  2724 PWs)   bands (ev):

   -20.4460 -14.1887 -10.6894  -6.8258

          k = 0.2083 1.0825 0.0000 (  2764 PWs)   bands (ev):

   -22.7673 -10.1075  -9.5983  -8.3195

          k =-0.1250-0.5052 0.0000 (  2724 PWs)   bands (ev):

   -20.4460 -14.1887 -10.6894  -6.8258

          k = 0.2083 0.0722 0.0000 (  2764 PWs)   bands (ev):

   -22.7673 -10.1075  -9.5983  -8.3195

          k = 0.1250-0.5052 0.0000 (  2724 PWs)   bands (ev):

   -20.4460 -14.1887 -10.6894  -6.8258

          k = 0.4583 0.0722 0.0000 (  2720 PWs)   bands (ev):

   -20.8153 -13.3220 -10.9096  -7.3866

          k =-0.2500 0.4330 0.0000 (  2726 PWs)   bands (ev):

   -20.5043 -13.4043 -11.6889  -6.9276

          k = 0.0833 1.0104 0.0000 (  2755 PWs)   bands (ev):

   -23.0562 -10.4976  -8.6462  -7.9413

          k =-0.2500 0.5774 0.0000 (  2706 PWs)   bands (ev):

   -19.9254 -13.9948 -12.3719  -6.0095

          k = 0.0833 1.1547 0.0000 (  2771 PWs)   bands (ev):

   -23.3518 -10.8953  -7.5940  -7.3769

     highest occupied level (ev):    -6.0095

     Writing output data file bn.save/

     default                                                                    

     bravais-lattice index     =            4
     lattice parameter (alat)  =       4.7419  a.u.
     unit-cell volume          =     397.0601 (a.u.)^3
     number of atoms/cell      =            2
     number of atomic types    =            2
     kinetic-energy cut-off    =      55.0000  Ry
     charge density cut-off    =     440.0000  Ry
     convergence threshold     =      1.0E-15
     beta                      =       0.7000
     number of iterations used =            4
     Exchange-correlation      = PBE ( 1  4  3  4 0 0)


     celldm(1)=    4.74190  celldm(2)=    0.00000  celldm(3)=    4.30000
     celldm(4)=    0.00000  celldm(5)=    0.00000  celldm(6)=    0.00000

     crystal axes: (cart. coord. in units of alat)
               a(1) = (  1.0000  0.0000  0.0000 )  
               a(2) = ( -0.5000  0.8660  0.0000 )  
               a(3) = (  0.0000  0.0000  4.3000 )  

     reciprocal axes: (cart. coord. in units 2 pi/alat)
               b(1) = (  1.0000  0.5774  0.0000 )  
               b(2) = (  0.0000  1.1547  0.0000 )  
               b(3) = (  0.0000  0.0000  0.2326 )  


     Atoms inside the unit cell: 

     Cartesian axes

     site n.  atom      mass           positions (alat units)
        1     B   10.8100   tau(    1) = (    0.00000    0.28868    0.00000  )
        2     N   14.0067   tau(    2) = (    0.00000   -0.28868    0.00000  )

     Computing dynamical matrix for 
                    q = (   0.3333333   0.5773503   0.0000000 )
 
      6 Sym.Ops. (no q -> -q+G )


     G cutoff =  250.6096  (   7718 G-vectors)     FFT grid: ( 32, 32,144)
     G cutoff =  125.3048  (   2738 G-vectors)  smooth grid: ( 24, 24,100)
     number of k points=    44

     PseudoPot. # 1 for B  read from file:
     ./pseudo_dir/B.pbe-n-kjpaw_psl.0.1.UPF
     MD5 check sum: ce1cfd82b228d771fe3728b6beef9a4c
     Pseudo is Ultrasoft + core correction, Zval =  3.0
     Generated using "atomic" code by A. Dal Corso v.6.3MaX
     Using radial grid of 1059 points,  4 beta functions with: 
                l(1) =   0
                l(2) =   0
                l(3) =   1
                l(4) =   1
     Q(r) pseudized with 0 coefficients 


     PseudoPot. # 2 for N  read from file:
     ./pseudo_dir/N.pbe-n-kjpaw_psl.0.1.UPF
     MD5 check sum: 5f964142c164ed943b244cf6ba502af7
     Pseudo is Projector augmented-wave + core cor, Zval =  5.0
     Generated using "atomic" code by A. Dal Corso v.6.3
     Shape of augmentation charge: PSQ
     Using radial grid of 1085 points,  4 beta functions with: 
                l(1) =   0
                l(2) =   0
                l(3) =   1
                l(4) =   1
     Q(r) pseudized with 0 coefficients 



     Atomic displacements:
     There are   6 irreducible representations

     Representation     1      1 modes -  To be done

     Representation     2      1 modes -  To be done

     Representation     3      1 modes -  To be done

     Representation     4      1 modes -  To be done

     Representation     5      1 modes -  To be done

     Representation     6      1 modes -  To be done



     Alpha used in Ewald sum =   2.8000

     negative rho (up, down):  1.391E-05 0.000E+00
     PHONON       :   7m53.56s CPU   9m 6.17s WALL



     Representation #  1 mode #   1

     Self-consistent Calculation

      iter #   1 total cpu time :   547.1 secs   av.it.:   6.4
      thresh= 1.000E-02 alpha_mix =  0.700 |ddv_scf|^2 =  3.289E-06

      iter #   2 total cpu time :   548.2 secs   av.it.:   8.9
      thresh= 1.814E-04 alpha_mix =  0.700 |ddv_scf|^2 =  2.954E-07

      iter #   3 total cpu time :   549.3 secs   av.it.:   8.6
      thresh= 5.435E-05 alpha_mix =  0.700 |ddv_scf|^2 =  9.674E-12

      iter #   4 total cpu time :   550.5 secs   av.it.:  11.0
      thresh= 3.110E-07 alpha_mix =  0.700 |ddv_scf|^2 =  2.294E-13

      iter #   5 total cpu time :   551.7 secs   av.it.:  10.6
      thresh= 4.789E-08 alpha_mix =  0.700 |ddv_scf|^2 =  1.749E-15

      iter #   6 total cpu time :   552.9 secs   av.it.:  10.2
      thresh= 4.182E-09 alpha_mix =  0.700 |ddv_scf|^2 =  2.288E-17

     End of self-consistent calculation

     Convergence has been achieved 


     Representation #  2 mode #   2

     Self-consistent Calculation

      iter #   1 total cpu time :   554.0 secs   av.it.:   7.3
      thresh= 1.000E-02 alpha_mix =  0.700 |ddv_scf|^2 =  7.307E-07

      iter #   2 total cpu time :   555.3 secs   av.it.:  11.4
      thresh= 8.548E-05 alpha_mix =  0.700 |ddv_scf|^2 =  9.515E-09

      iter #   3 total cpu time :   556.6 secs   av.it.:  11.1
      thresh= 9.754E-06 alpha_mix =  0.700 |ddv_scf|^2 =  5.397E-10

      iter #   4 total cpu time :   557.7 secs   av.it.:  10.0
      thresh= 2.323E-06 alpha_mix =  0.700 |ddv_scf|^2 =  7.708E-13

      iter #   5 total cpu time :   559.0 secs   av.it.:  11.0
      thresh= 8.780E-08 alpha_mix =  0.700 |ddv_scf|^2 =  1.952E-15

      iter #   6 total cpu time :   560.2 secs   av.it.:  10.2
      thresh= 4.418E-09 alpha_mix =  0.700 |ddv_scf|^2 =  1.102E-16

     End of self-consistent calculation

     Convergence has been achieved 


     Representation #  3 mode #   3

     Self-consistent Calculation

      iter #   1 total cpu time :   561.3 secs   av.it.:   7.7
      thresh= 1.000E-02 alpha_mix =  0.700 |ddv_scf|^2 =  3.665E-06

      iter #   2 total cpu time :   562.5 secs   av.it.:  11.8
      thresh= 1.914E-04 alpha_mix =  0.700 |ddv_scf|^2 =  1.379E-06

      iter #   3 total cpu time :   563.8 secs   av.it.:  11.4
      thresh= 1.174E-04 alpha_mix =  0.700 |ddv_scf|^2 =  9.063E-10

      iter #   4 total cpu time :   565.1 secs   av.it.:  11.4
      thresh= 3.011E-06 alpha_mix =  0.700 |ddv_scf|^2 =  2.805E-11

      iter #   5 total cpu time :   566.3 secs   av.it.:  11.0
      thresh= 5.296E-07 alpha_mix =  0.700 |ddv_scf|^2 =  1.304E-13

      iter #   6 total cpu time :   567.5 secs   av.it.:  10.2
      thresh= 3.612E-08 alpha_mix =  0.700 |ddv_scf|^2 =  8.192E-16

     End of self-consistent calculation

     Convergence has been achieved 


     Representation #  4 mode #   4

     Self-consistent Calculation

      iter #   1 total cpu time :   568.6 secs   av.it.:   7.0
      thresh= 1.000E-02 alpha_mix =  0.700 |ddv_scf|^2 =  3.355E-06

      iter #   2 total cpu time :   569.8 secs   av.it.:  11.2
      thresh= 1.832E-04 alpha_mix =  0.700 |ddv_scf|^2 =  1.195E-06

      iter #   3 total cpu time :   571.1 secs   av.it.:  11.6
      thresh= 1.093E-04 alpha_mix =  0.700 |ddv_scf|^2 =  4.460E-07

      iter #   4 total cpu time :   572.4 secs   av.it.:  11.3
      thresh= 6.678E-05 alpha_mix =  0.700 |ddv_scf|^2 =  6.199E-11

      iter #   5 total cpu time :   573.7 secs   av.it.:  11.4
      thresh= 7.873E-07 alpha_mix =  0.700 |ddv_scf|^2 =  7.652E-14

      iter #   6 total cpu time :   574.9 secs   av.it.:  10.7
      thresh= 2.766E-08 alpha_mix =  0.700 |ddv_scf|^2 =  6.950E-15

      iter #   7 total cpu time :   576.2 secs   av.it.:  11.5
      thresh= 8.337E-09 alpha_mix =  0.700 |ddv_scf|^2 =  8.410E-17

     End of self-consistent calculation

     Convergence has been achieved 


     Representation #  5 mode #   5

     Self-consistent Calculation

      iter #   1 total cpu time :   577.3 secs   av.it.:   7.7
      thresh= 1.000E-02 alpha_mix =  0.700 |ddv_scf|^2 =  2.339E-06

      iter #   2 total cpu time :   578.6 secs   av.it.:  11.9
      thresh= 1.529E-04 alpha_mix =  0.700 |ddv_scf|^2 =  2.271E-07

      iter #   3 total cpu time :   579.9 secs   av.it.:  11.6
      thresh= 4.765E-05 alpha_mix =  0.700 |ddv_scf|^2 =  5.233E-10

      iter #   4 total cpu time :   581.1 secs   av.it.:  11.0
      thresh= 2.288E-06 alpha_mix =  0.700 |ddv_scf|^2 =  2.931E-12

      iter #   5 total cpu time :   582.4 secs   av.it.:  11.6
      thresh= 1.712E-07 alpha_mix =  0.700 |ddv_scf|^2 =  3.224E-14

      iter #   6 total cpu time :   583.6 secs   av.it.:  10.0
      thresh= 1.796E-08 alpha_mix =  0.700 |ddv_scf|^2 =  8.351E-16

     End of self-consistent calculation

     Convergence has been achieved 


     Representation #  6 mode #   6

     Self-consistent Calculation

      iter #   1 total cpu time :   584.8 secs   av.it.:   6.9
      thresh= 1.000E-02 alpha_mix =  0.700 |ddv_scf|^2 =  2.768E-06

      iter #   2 total cpu time :   586.1 secs   av.it.:  10.5
      thresh= 1.664E-04 alpha_mix =  0.700 |ddv_scf|^2 =  2.507E-07

      iter #   3 total cpu time :   587.3 secs   av.it.:  10.9
      thresh= 5.007E-05 alpha_mix =  0.700 |ddv_scf|^2 =  1.321E-08

      iter #   4 total cpu time :   588.6 secs   av.it.:  11.5
      thresh= 1.149E-05 alpha_mix =  0.700 |ddv_scf|^2 =  5.097E-13

      iter #   5 total cpu time :   589.9 secs   av.it.:  11.6
      thresh= 7.139E-08 alpha_mix =  0.700 |ddv_scf|^2 =  1.511E-14

      iter #   6 total cpu time :   591.1 secs   av.it.:  11.0
      thresh= 1.229E-08 alpha_mix =  0.700 |ddv_scf|^2 =  2.280E-16

     End of self-consistent calculation

     Convergence has been achieved 
 
     Number of q in the star =    2
     List of q in the star:
          1   0.333333333   0.577350269   0.000000000
          2  -0.333333333   0.577350269   0.000000000

     Diagonalizing the dynamical matrix

     q = (    0.333333333   0.577350269   0.000000000 ) 

 **************************************************************************
     freq (    1) =       9.312255 [THz] =     310.623390 [cm-1]
     freq (    2) =      17.750778 [THz] =     592.102218 [cm-1]
     freq (    3) =      25.896230 [THz] =     863.805253 [cm-1]
     freq (    4) =      31.518186 [THz] =    1051.333518 [cm-1]
     freq (    5) =      34.927612 [THz] =    1165.059726 [cm-1]
     freq (    6) =      37.539931 [THz] =    1252.197321 [cm-1]
 **************************************************************************
 
     init_run     :      3.49s CPU      3.66s WALL (       6 calls)
     electrons    :     24.59s CPU     27.05s WALL (       6 calls)

     Called by init_run:
     wfcinit      :      0.00s CPU      0.00s WALL (       6 calls)
     potinit      :      0.28s CPU      0.36s WALL (       6 calls)
     hinit0       :      2.30s CPU      2.37s WALL (       6 calls)

     Called by electrons:
     c_bands      :     24.58s CPU     27.02s WALL (       6 calls)
     v_of_rho     :      0.19s CPU      0.19s WALL (       7 calls)
     newd         :      0.16s CPU      0.17s WALL (       7 calls)
     PAW_pot      :      0.11s CPU      0.19s WALL (       7 calls)

     Called by c_bands:
     init_us_2    :      2.93s CPU      3.37s WALL (   13648 calls)
     cegterg      :     21.76s CPU     23.86s WALL (     486 calls)

     Called by sum_band:

     Called by *egterg:
     h_psi        :    285.03s CPU    320.70s WALL (  145030 calls)
     s_psi        :     19.00s CPU     21.25s WALL (  291291 calls)
     g_psi        :      0.23s CPU      0.25s WALL (    8659 calls)
     cdiaghg      :      1.07s CPU      1.18s WALL (    9145 calls)

     Called by h_psi:
     h_psi:pot    :    283.69s CPU    319.17s WALL (  145030 calls)
     h_psi:calbec :     14.52s CPU     16.56s WALL (  145030 calls)
     vloc_psi     :    257.47s CPU    289.65s WALL (  145030 calls)
     add_vuspsi   :      9.94s CPU     11.14s WALL (  145030 calls)

     General routines
     calbec       :     28.66s CPU     32.88s WALL (  316125 calls)
     fft          :      7.04s CPU      8.11s WALL (    5931 calls)
     ffts         :      1.08s CPU      1.26s WALL (    2524 calls)
     fftw         :    262.34s CPU    297.03s WALL ( 1182724 calls)
     interpolate  :      1.24s CPU      1.41s WALL (     664 calls)
     davcio       :      2.36s CPU      3.70s WALL (   59196 calls)
 
     Parallel routines
     fft_scatt_xy :     36.45s CPU     39.85s WALL ( 1191179 calls)
     fft_scatt_yz :     81.02s CPU     96.07s WALL ( 1191179 calls)
 
     PHONON       :   8m32.55s CPU   9m51.18s WALL

     INITIALIZATION: 
     phq_setup    :      0.45s CPU      0.47s WALL (       7 calls)
     phq_init     :     20.49s CPU     21.24s WALL (       7 calls)
 
     phq_init     :     20.49s CPU     21.24s WALL (       7 calls)
     set_drhoc    :     11.34s CPU     11.42s WALL (      21 calls)
     init_vloc    :      0.59s CPU      0.59s WALL (       7 calls)
     init_us_1    :      0.74s CPU      0.79s WALL (       7 calls)
     newd         :      0.16s CPU      0.17s WALL (       7 calls)
     dvanqq       :      1.97s CPU      2.00s WALL (       7 calls)
     drho         :      4.37s CPU      4.79s WALL (       7 calls)
 
     DYNAMICAL MATRIX:
     dynmat0      :      8.23s CPU      8.41s WALL (       7 calls)
     phqscf       :    447.63s CPU    519.73s WALL (       7 calls)
     dynmatrix    :      0.02s CPU      0.03s WALL (       7 calls)
 
     phqscf       :    447.63s CPU    519.73s WALL (       7 calls)
     solve_linter :    446.04s CPU    517.89s WALL (      40 calls)
     drhodv       :      1.19s CPU      1.34s WALL (      40 calls)
 
     dynmat0      :      8.23s CPU      8.41s WALL (       7 calls)
     dynmat_us    :      0.35s CPU      0.37s WALL (       7 calls)
     d2ionq       :      0.03s CPU      0.03s WALL (       7 calls)
     dynmatcc     :      7.83s CPU      7.97s WALL (       7 calls)
 
     dynmat_us    :      0.35s CPU      0.37s WALL (       7 calls)
     addusdynmat  :      0.00s CPU      0.00s WALL (       7 calls)
 
     phqscf       :    447.63s CPU    519.73s WALL (       7 calls)
     solve_linter :    446.04s CPU    517.89s WALL (      40 calls)
 
     solve_linter :    446.04s CPU    517.89s WALL (      40 calls)
     dvqpsi_us    :      4.77s CPU      5.33s WALL (    1578 calls)
     ortho        :      3.32s CPU      3.78s WALL (   10832 calls)
     cgsolve      :    326.60s CPU    368.51s WALL (   10832 calls)
     incdrhoscf   :     26.64s CPU     30.49s WALL (   10832 calls)
     addusddens   :      8.23s CPU      8.56s WALL (     311 calls)
     vpsifft      :     20.37s CPU     23.49s WALL (    9074 calls)
     dv_of_drho   :      8.34s CPU      8.98s WALL (     306 calls)
     mix_pot      :      1.32s CPU      2.31s WALL (     278 calls)
     psymdvscf    :     20.32s CPU     21.09s WALL (     271 calls)
     newdq        :      7.31s CPU      7.55s WALL (     278 calls)
     adddvscf     :      0.68s CPU      0.76s WALL (    9254 calls)
     drhodvus     :      0.04s CPU      0.10s WALL (      40 calls)
 
     dvqpsi_us    :      4.77s CPU      5.33s WALL (    1578 calls)
     dvqpsi_us_on :      0.43s CPU      0.46s WALL (    1578 calls)
 
     cgsolve      :    326.60s CPU    368.51s WALL (   10832 calls)
     ch_psi       :    313.31s CPU    352.99s WALL (  135399 calls)
 
     ch_psi       :    313.31s CPU    352.99s WALL (  135399 calls)
     h_psi        :    285.03s CPU    320.70s WALL (  145030 calls)
     last         :     33.67s CPU     38.14s WALL (  135399 calls)
 
     h_psi        :    285.03s CPU    320.70s WALL (  145030 calls)
     add_vuspsi   :      9.94s CPU     11.14s WALL (  145030 calls)
 
     incdrhoscf   :     26.64s CPU     30.49s WALL (   10832 calls)
     addusdbec    :      1.62s CPU      1.87s WALL (   12350 calls)
 
     drhodvus     :      0.04s CPU      0.10s WALL (      40 calls)
 
      General routines
     calbec       :     28.66s CPU     32.88s WALL (  316125 calls)
     fft          :      7.04s CPU      8.11s WALL (    5931 calls)
     ffts         :      1.08s CPU      1.26s WALL (    2524 calls)
     fftw         :    262.34s CPU    297.03s WALL ( 1182724 calls)
     davcio       :      2.36s CPU      3.70s WALL (   59196 calls)
     write_rec    :      0.54s CPU      0.91s WALL (     318 calls)
 
 
     PHONON       :   8m32.55s CPU   9m51.18s WALL

 
   This run was terminated on:  15:16:27  23Aug2019            

=------------------------------------------------------------------------------=
   JOB DONE.
=------------------------------------------------------------------------------=
