
     Program PWSCF v.6.7MaX starts on 26Apr2021 at 14:28:37 

     This program is part of the open-source Quantum ESPRESSO suite
     for quantum simulation of materials; please cite
         "P. Giannozzi et al., J. Phys.:Condens. Matter 21 395502 (2009);
         "P. Giannozzi et al., J. Phys.:Condens. Matter 29 465901 (2017);
          URL http://www.quantum-espresso.org", 
     in publications or presentations arising from this work. More details at
     http://www.quantum-espresso.org/quote

     Parallel version (MPI), running on     1 processors

     MPI processes distributed on     1 nodes
     Reading input from pw.graphene3x3-O.relax.in

     Current dimensions of program PWSCF are:
     Max number of different atomic species (ntypx) = 10
     Max number of k-points (npk) =  40000
     Max angular momentum in pseudopotentials (lmaxx) =  3
     file C.pbe-rrkjus.UPF: wavefunction(s)  2S 2P renormalized
     file O.pbe-rrkjus.UPF: wavefunction(s)  2S renormalized

     gamma-point specific algorithms are used

     Subspace diagonalization in iterative solution of the eigenvalue problem:
     a serial algorithm will be used


     G-vector sticks info
     --------------------
     sticks:   dense  smooth     PW     G-vecs:    dense   smooth      PW
     Sum        2689    1069    265               112707    28527    3547



     bravais-lattice index     =            4
     lattice parameter (alat)  =      13.9620  a.u.
     unit-cell volume          =    2357.0757 (a.u.)^3
     number of atoms/cell      =           19
     number of atomic types    =            2
     number of electrons       =        78.00
     number of Kohn-Sham states=           47
     kinetic-energy cutoff     =      20.0000  Ry
     charge density cutoff     =     200.0000  Ry
     scf convergence threshold =      1.0E-08
     mixing beta               =       0.7000
     number of iterations used =            8  plain     mixing
     energy convergence thresh.=      1.0E-04
     force convergence thresh. =      1.0E-03
     Exchange-correlation=  SLA  PW   PBE  PBE
                           (   1   4   3   4   0   0   0)
     nstep                     =           50


     celldm(1)=  13.962000  celldm(2)=   0.000000  celldm(3)=   1.000000
     celldm(4)=   0.000000  celldm(5)=   0.000000  celldm(6)=   0.000000

     crystal axes: (cart. coord. in units of alat)
               a(1) = (   1.000000   0.000000   0.000000 )  
               a(2) = (  -0.500000   0.866025   0.000000 )  
               a(3) = (   0.000000   0.000000   1.000000 )  

     reciprocal axes: (cart. coord. in units 2 pi/alat)
               b(1) = (  1.000000  0.577350 -0.000000 )  
               b(2) = (  0.000000  1.154701  0.000000 )  
               b(3) = (  0.000000 -0.000000  1.000000 )  


     PseudoPot. # 1 for C  read from file:
     /home/user/QE-2021/pseudo/C.pbe-rrkjus.UPF
     MD5 check sum: 00fb224312de0c5b6853bd333518df6f
     Pseudo is Ultrasoft, Zval =  4.0
     Generated by new atomic code, or converted to UPF format
     Using radial grid of  627 points,  4 beta functions with: 
                l(1) =   0
                l(2) =   0
                l(3) =   1
                l(4) =   1
     Q(r) pseudized with 0 coefficients 


     PseudoPot. # 2 for O  read from file:
     /home/user/QE-2021/pseudo/O.pbe-rrkjus.UPF
     MD5 check sum: 390ba29e75625707450f3bd3f0eb6be9
     Pseudo is Ultrasoft, Zval =  6.0
     Generated by new atomic code, or converted to UPF format
     Using radial grid of 1269 points,  4 beta functions with: 
                l(1) =   0
                l(2) =   0
                l(3) =   1
                l(4) =   1
     Q(r) pseudized with 0 coefficients 


     atomic species   valence    mass     pseudopotential
        C              4.00    12.01070     C ( 1.00)
        O              6.00    16.00000     O ( 1.00)

     No symmetry found



   Cartesian axes

     site n.     atom                  positions (alat units)
         1           C   tau(   1) = (   0.0000000   0.0000000   0.0000000  )
         2           C   tau(   2) = (  -0.1666666   0.2886750   0.0000000  )
         3           C   tau(   3) = (  -0.3333332   0.5773500   0.0000000  )
         4           C   tau(   4) = (   0.3333332   0.0000000   0.0000000  )
         5           C   tau(   5) = (   0.1666666   0.2886750   0.0000000  )
         6           C   tau(   6) = (   0.0000000   0.5773500   0.0000000  )
         7           C   tau(   7) = (   0.6666664   0.0000000   0.0000000  )
         8           C   tau(   8) = (   0.4999998   0.2886750   0.0000000  )
         9           C   tau(   9) = (   0.3333332   0.5773500   0.0000000  )
        10           C   tau(  10) = (   0.0000000   0.1924500   0.0000000  )
        11           C   tau(  11) = (  -0.1666666   0.4811250   0.0000000  )
        12           C   tau(  12) = (  -0.3333332   0.7698001   0.0000000  )
        13           C   tau(  13) = (   0.3333332   0.1924500   0.0000000  )
        14           C   tau(  14) = (   0.1666666   0.4811250   0.0000000  )
        15           C   tau(  15) = (   0.0000000   0.7698001   0.0000000  )
        16           C   tau(  16) = (   0.6666664   0.1924500   0.0000000  )
        17           C   tau(  17) = (   0.4999998   0.4811250   0.0000000  )
        18           C   tau(  18) = (   0.3333332   0.7698001   0.0000000  )
        19           O   tau(  19) = (   0.1666768   0.3849238   0.1773056  )

     number of k points=     1  Marzari-Vanderbilt smearing, width (Ry)=  0.0100
                       cart. coord. in units 2pi/alat
        k(    1) = (   0.0000000   0.0000000   0.0000000), wk =   2.0000000

     Dense  grid:    56354 G-vectors     FFT dimensions: (  64,  64,  64)

     Smooth grid:    14264 G-vectors     FFT dimensions: (  40,  40,  40)

     Estimated max dynamical RAM per process >     131.02 MB

     Initial potential from superposition of free atoms

     starting charge   77.99905, renormalised to   78.00000
     Starting wfcs are   76 randomized atomic wfcs

     total cpu time spent up to now is        0.9 secs

     Self-consistent Calculation

     iteration #  1     ecut=    20.00 Ry     beta= 0.70
     Davidson diagonalization with overlap
     ethr =  1.00E-02,  avg # of iterations =  2.0

     negative rho (up, down):  2.584E-07 0.000E+00

     total cpu time spent up to now is        1.7 secs

     total energy              =    -235.97811159 Ry
     estimated scf accuracy    <       1.74156708 Ry

     iteration #  2     ecut=    20.00 Ry     beta= 0.70
     Davidson diagonalization with overlap
     ethr =  2.23E-03,  avg # of iterations =  2.0

     negative rho (up, down):  3.404E-06 0.000E+00

     total cpu time spent up to now is        2.6 secs

     total energy              =    -236.18906825 Ry
     estimated scf accuracy    <       0.05029296 Ry

     iteration #  3     ecut=    20.00 Ry     beta= 0.70
     Davidson diagonalization with overlap
     ethr =  6.45E-05,  avg # of iterations = 10.0

     negative rho (up, down):  4.438E-04 0.000E+00

     total cpu time spent up to now is        3.5 secs

     total energy              =    -236.17749791 Ry
     estimated scf accuracy    <       0.10609947 Ry

     iteration #  4     ecut=    20.00 Ry     beta= 0.70
     Davidson diagonalization with overlap
     ethr =  6.45E-05,  avg # of iterations =  2.0

     negative rho (up, down):  1.251E-05 0.000E+00

     total cpu time spent up to now is        4.4 secs

     total energy              =    -236.20103898 Ry
     estimated scf accuracy    <       0.01437648 Ry

     iteration #  5     ecut=    20.00 Ry     beta= 0.70
     Davidson diagonalization with overlap
     ethr =  1.84E-05,  avg # of iterations =  2.0

     negative rho (up, down):  1.546E-05 0.000E+00

     total cpu time spent up to now is        5.3 secs

     total energy              =    -236.20260994 Ry
     estimated scf accuracy    <       0.00204646 Ry

     iteration #  6     ecut=    20.00 Ry     beta= 0.70
     Davidson diagonalization with overlap
     ethr =  2.62E-06,  avg # of iterations =  2.0

     negative rho (up, down):  2.546E-05 0.000E+00

     total cpu time spent up to now is        6.0 secs

     total energy              =    -236.20288170 Ry
     estimated scf accuracy    <       0.00196858 Ry

     iteration #  7     ecut=    20.00 Ry     beta= 0.70
     Davidson diagonalization with overlap
     ethr =  2.52E-06,  avg # of iterations =  1.0

     negative rho (up, down):  1.418E-05 0.000E+00

     total cpu time spent up to now is        6.8 secs

     total energy              =    -236.20305604 Ry
     estimated scf accuracy    <       0.00024318 Ry

     iteration #  8     ecut=    20.00 Ry     beta= 0.70
     Davidson diagonalization with overlap
     ethr =  3.12E-07,  avg # of iterations =  2.0

     negative rho (up, down):  1.353E-05 0.000E+00

     total cpu time spent up to now is        7.6 secs

     total energy              =    -236.20308263 Ry
     estimated scf accuracy    <       0.00000744 Ry

     iteration #  9     ecut=    20.00 Ry     beta= 0.70
     Davidson diagonalization with overlap
     ethr =  9.54E-09,  avg # of iterations =  3.0

     negative rho (up, down):  1.347E-05 0.000E+00

     total cpu time spent up to now is        8.4 secs

     total energy              =    -236.20308511 Ry
     estimated scf accuracy    <       0.00000121 Ry

     iteration # 10     ecut=    20.00 Ry     beta= 0.70
     Davidson diagonalization with overlap
     ethr =  1.55E-09,  avg # of iterations =  2.0

     negative rho (up, down):  1.349E-05 0.000E+00

     total cpu time spent up to now is        9.4 secs

     total energy              =    -236.20308536 Ry
     estimated scf accuracy    <       0.00000017 Ry

     iteration # 11     ecut=    20.00 Ry     beta= 0.70
     Davidson diagonalization with overlap
     ethr =  2.17E-10,  avg # of iterations =  2.0

     negative rho (up, down):  1.349E-05 0.000E+00

     total cpu time spent up to now is       10.2 secs

     total energy              =    -236.20308538 Ry
     estimated scf accuracy    <       0.00000001 Ry

     iteration # 12     ecut=    20.00 Ry     beta= 0.70
     Davidson diagonalization with overlap
     ethr =  1.44E-11,  avg # of iterations =  3.0

     negative rho (up, down):  1.349E-05 0.000E+00

     total cpu time spent up to now is       11.0 secs

     End of self-consistent calculation

          k = 0.0000 0.0000 0.0000 (  1774 PWs)   bands (ev):

   -22.3971 -18.1902 -16.2926 -16.0158 -15.9898 -15.9660 -15.9432 -14.5847
   -12.0567 -11.7298 -11.6156 -11.4553  -9.8973  -9.7989  -9.1045  -8.9630
    -8.8876  -8.7931  -8.6673  -8.5870  -6.4531  -5.6862  -5.4941  -5.1882
    -5.0155  -4.8226  -4.8016  -4.7683  -4.3619  -3.8863  -3.6277  -3.6061
    -3.5932  -2.2091  -2.1449  -1.9606  -1.1174  -0.2702   1.0432   1.1324
     2.0408   3.8398   4.1563   5.9395   5.9620   5.9900   6.1241

     the Fermi energy is     1.1041 ev

!    total energy              =    -236.20308538 Ry
     estimated scf accuracy    <          7.0E-09 Ry
     smearing contrib. (-TS)   =      -0.00509806 Ry
     internal energy E=F+TS    =    -236.19798733 Ry

     The total energy is F=E-TS. E is the sum of the following terms:
     one-electron contribution =    -565.44852384 Ry
     hartree contribution      =     304.72434436 Ry
     xc contribution           =     -70.27514440 Ry
     ewald contribution        =      94.80133656 Ry

     convergence has been achieved in  12 iterations

     Forces acting on atoms (cartesian axes, Ry/au):

     atom    1 type  1   force =    -0.01545573   -0.00955371   -0.00098210
     atom    2 type  1   force =     0.05448576   -0.03454603   -0.00637877
     atom    3 type  1   force =    -0.00031250    0.05227112    0.00042331
     atom    4 type  1   force =     0.01487316   -0.00954447   -0.00098382
     atom    5 type  1   force =    -0.00032281   -0.02827207    0.04523820
     atom    6 type  1   force =    -0.10848413    0.01179300   -0.03422665
     atom    7 type  1   force =     0.00063065    0.04740301   -0.00672291
     atom    8 type  1   force =    -0.05417309   -0.03402077   -0.00637935
     atom    9 type  1   force =     0.10878644    0.01230399   -0.03423655
     atom   10 type  1   force =    -0.10842820   -0.01239908   -0.03419122
     atom   11 type  1   force =     0.05410554    0.03398732   -0.00637621
     atom   12 type  1   force =    -0.00059168   -0.04702144   -0.00672204
     atom   13 type  1   force =     0.10801989   -0.01202041   -0.03420526
     atom   14 type  1   force =     0.00012099    0.02770426    0.04519973
     atom   15 type  1   force =    -0.01546825    0.00968521   -0.00098252
     atom   16 type  1   force =     0.00048469   -0.05197366    0.00041961
     atom   17 type  1   force =    -0.05416783    0.03457561   -0.00637738
     atom   18 type  1   force =     0.01607364    0.00991395   -0.00098343
     atom   19 type  2   force =    -0.00017655   -0.00028585    0.08846735

     Total force =     0.306156     Total SCF correction =     0.000220

     BFGS Geometry Optimization
     Energy error            =      0.0E+00
     Gradient error          =      1.1E-01

     number of scf cycles    =   1
     number of bfgs steps    =   0

     energy   new            =    -236.2030853823 Ry

     new trust radius        =       0.1147084121 bohr
     new conv_thr            =       0.0000000100 Ry


ATOMIC_POSITIONS (angstrom)
C            -0.0081788190       -0.0050556056       -0.0005197050
C            -1.2025622550        2.1145575204       -0.0033754998
C            -2.4629551288        4.2933376750        0.0002240049
C             2.4706602951       -0.0050507178       -0.0005206136
C             1.2312240567        2.1178775535        0.0239390251
C            -0.0574073281        4.2719175771       -0.0181119632
C             4.9259132440        0.0250845948       -0.0035576105
C             3.6655174753        2.1148354761       -0.0033758048
C             2.5203570663        4.2721879803       -0.0181172035
C            -0.0573777301        1.4153310971       -0.0180932123
C            -1.2027634620        3.5727162145       -0.0033741449
C            -2.4631028629        5.6626867171       -0.0035571488
C             2.5199514226        1.4155314846       -0.0181006460
C             1.2314589076        3.5693913648        0.0239186653
C            -0.0081854440        5.6926945819       -0.0005199283
C             4.9258360090        1.3943891345        0.0002220498
C             3.6655202585        3.5730275269       -0.0033747623
C             2.4712955621        5.6928156282       -0.0005204103
O             1.2313765726        2.8438087364        1.3568149080



     Writing output data file /tmp/Graphene3x3-O_PBE.save/
     NEW-OLD atomic charge density approx. for the potential

     negative rho (up, down):  1.453E-05 0.000E+00

     total cpu time spent up to now is       11.9 secs

     Self-consistent Calculation

     iteration #  1     ecut=    20.00 Ry     beta= 0.70
     Davidson diagonalization with overlap
     ethr =  1.00E-06,  avg # of iterations = 10.0

     negative rho (up, down):  1.340E-05 0.000E+00

     total cpu time spent up to now is       13.5 secs

     total energy              =    -236.22888537 Ry
     estimated scf accuracy    <       0.04277568 Ry

     iteration #  2     ecut=    20.00 Ry     beta= 0.70
     Davidson diagonalization with overlap
     ethr =  5.48E-05,  avg # of iterations =  2.0

     negative rho (up, down):  6.255E-05 0.000E+00

     total cpu time spent up to now is       14.3 secs

     total energy              =    -236.23715532 Ry
     estimated scf accuracy    <       0.01270551 Ry

     iteration #  3     ecut=    20.00 Ry     beta= 0.70
     Davidson diagonalization with overlap
     ethr =  1.63E-05,  avg # of iterations =  2.0

     negative rho (up, down):  6.983E-05 0.000E+00

     total cpu time spent up to now is       15.1 secs

     total energy              =    -236.23925886 Ry
     estimated scf accuracy    <       0.00797771 Ry

     iteration #  4     ecut=    20.00 Ry     beta= 0.70
     Davidson diagonalization with overlap
     ethr =  1.02E-05,  avg # of iterations =  2.0

     negative rho (up, down):  1.857E-05 0.000E+00

     total cpu time spent up to now is       15.9 secs

     total energy              =    -236.24086745 Ry
     estimated scf accuracy    <       0.00058557 Ry

     iteration #  5     ecut=    20.00 Ry     beta= 0.70
     Davidson diagonalization with overlap
     ethr =  7.51E-07,  avg # of iterations =  2.0

     negative rho (up, down):  1.444E-05 0.000E+00

     total cpu time spent up to now is       16.6 secs

     total energy              =    -236.24099209 Ry
     estimated scf accuracy    <       0.00006726 Ry

     iteration #  6     ecut=    20.00 Ry     beta= 0.70
     Davidson diagonalization with overlap
     ethr =  8.62E-08,  avg # of iterations =  2.0

     negative rho (up, down):  1.371E-05 0.000E+00

     total cpu time spent up to now is       17.4 secs

     total energy              =    -236.24100621 Ry
     estimated scf accuracy    <       0.00000481 Ry

     iteration #  7     ecut=    20.00 Ry     beta= 0.70
     Davidson diagonalization with overlap
     ethr =  6.17E-09,  avg # of iterations =  2.0

     negative rho (up, down):  1.353E-05 0.000E+00

     total cpu time spent up to now is       18.2 secs

     total energy              =    -236.24100737 Ry
     estimated scf accuracy    <       0.00000019 Ry

     iteration #  8     ecut=    20.00 Ry     beta= 0.70
     Davidson diagonalization with overlap
     ethr =  2.39E-10,  avg # of iterations =  2.0

     negative rho (up, down):  1.352E-05 0.000E+00

     total cpu time spent up to now is       19.0 secs

     total energy              =    -236.24100740 Ry
     estimated scf accuracy    <       0.00000007 Ry

     iteration #  9     ecut=    20.00 Ry     beta= 0.70
     Davidson diagonalization with overlap
     ethr =  8.60E-11,  avg # of iterations =  2.0

     negative rho (up, down):  1.352E-05 0.000E+00

     total cpu time spent up to now is       19.9 secs

     total energy              =    -236.24100741 Ry
     estimated scf accuracy    <       0.00000003 Ry

     iteration # 10     ecut=    20.00 Ry     beta= 0.70
     Davidson diagonalization with overlap
     ethr =  3.28E-11,  avg # of iterations =  2.0

     negative rho (up, down):  1.352E-05 0.000E+00

     total cpu time spent up to now is       20.7 secs

     End of self-consistent calculation

          k = 0.0000 0.0000 0.0000 (  1774 PWs)   bands (ev):

   -21.6893 -18.2574 -16.2470 -16.2419 -16.2028 -15.9905 -15.7664 -14.5018
   -11.9431 -11.6184 -11.5742 -11.5274  -9.8991  -9.5968  -9.2342  -8.9989
    -8.8486  -8.7257  -8.6120  -8.5869  -6.4808  -5.5056  -5.3524  -5.1621
    -5.1329  -4.9198  -4.7978  -4.6238  -4.0734  -3.9593  -3.8022  -3.7365
    -3.4175  -2.2148  -2.0559  -1.9951  -0.9795  -0.4686   0.7070   1.3824
     2.3218   3.8956   4.1527   5.5681   6.0732   6.2902   6.3135

     the Fermi energy is     0.8323 ev

!    total energy              =    -236.24100741 Ry
     estimated scf accuracy    <          2.3E-09 Ry
     smearing contrib. (-TS)   =       0.00163099 Ry
     internal energy E=F+TS    =    -236.24263840 Ry

     The total energy is F=E-TS. E is the sum of the following terms:
     one-electron contribution =    -561.89536588 Ry
     hartree contribution      =     303.02322245 Ry
     xc contribution           =     -70.29792357 Ry
     ewald contribution        =      92.92742861 Ry

     convergence has been achieved in  10 iterations

     Forces acting on atoms (cartesian axes, Ry/au):

     atom    1 type  1   force =    -0.03526727   -0.05245026   -0.00586779
     atom    2 type  1   force =    -0.05806219   -0.00069172   -0.00811879
     atom    3 type  1   force =    -0.00022671   -0.05757277   -0.00004232
     atom    4 type  1   force =     0.03576495   -0.05265625   -0.00587397
     atom    5 type  1   force =    -0.00028266    0.00144474    0.05812705
     atom    6 type  1   force =     0.06367248   -0.00537542   -0.01765254
     atom    7 type  1   force =    -0.00012703   -0.05891756   -0.00312151
     atom    8 type  1   force =     0.05675364   -0.00121164   -0.00812925
     atom    9 type  1   force =    -0.06441991   -0.00614323   -0.01766036
     atom   10 type  1   force =     0.06367167    0.00643218   -0.01765193
     atom   11 type  1   force =    -0.05735709    0.00082872   -0.00812141
     atom   12 type  1   force =     0.00028141    0.05862980   -0.00312298
     atom   13 type  1   force =    -0.06246254    0.00602682   -0.01763332
     atom   14 type  1   force =     0.00036196   -0.00129993    0.05814793
     atom   15 type  1   force =    -0.03586675    0.05264106   -0.00587799
     atom   16 type  1   force =     0.00012907    0.05768148   -0.00005110
     atom   17 type  1   force =     0.05814517    0.00045720   -0.00811350
     atom   18 type  1   force =     0.03543885    0.05245922   -0.00587035
     atom   19 type  2   force =    -0.00014706   -0.00028243    0.01663414

     Total force =     0.260654     Total SCF correction =     0.000103
     Energy error            =      3.8E-02
     Gradient error          =      6.4E-02

     number of scf cycles    =   2
     number of bfgs steps    =   1

     energy   old            =    -236.2030853823 Ry
     energy   new            =    -236.2410074141 Ry

     CASE: energy  _new < energy  _old

     new trust radius        =       0.0544849394 bohr
     new conv_thr            =       0.0000000064 Ry


ATOMIC_POSITIONS (angstrom)
C            -0.0237407990       -0.0261963550       -0.0028718599
C            -1.2162613591        2.1091451497       -0.0073786833
C            -2.4630869564        4.2794922405        0.0002712315
C             2.4863224625       -0.0262675213       -0.0028753502
C             1.2310696593        2.1142039952        0.0525358118
C            -0.0496529070        4.2716558399       -0.0298522146
C             4.9259595524        0.0100076041       -0.0057336595
C             3.6787713353        2.1093060069       -0.0073830081
C             2.5123667773        4.2717138376       -0.0298618694
C            -0.0496152715        1.4158996743       -0.0298279477
C            -1.2162542284        3.5780967555       -0.0073779316
C            -2.4630853258        5.6777124499       -0.0057336216
C             2.5125825751        1.4160041634       -0.0298304827
C             1.2316130136        3.5730346686        0.0525175632
C            -0.0239746331        5.7139266655       -0.0028759822
C             4.9259568160        1.4083197969        0.0002654228
C             3.6792979714        3.5783561570       -0.0073757507
C             2.4870141945        5.7140134724       -0.0028737265
O             1.2312949629        2.8436599389        1.3762620587



     Writing output data file /tmp/Graphene3x3-O_PBE.save/
     NEW-OLD atomic charge density approx. for the potential

     negative rho (up, down):  1.216E-05 0.000E+00

     total cpu time spent up to now is       21.7 secs

     Self-consistent Calculation

     iteration #  1     ecut=    20.00 Ry     beta= 0.70
     Davidson diagonalization with overlap
     ethr =  1.00E-06,  avg # of iterations =  7.0

     negative rho (up, down):  1.250E-05 0.000E+00

     total cpu time spent up to now is       23.2 secs

     total energy              =    -236.25500902 Ry
     estimated scf accuracy    <       0.00637398 Ry

     iteration #  2     ecut=    20.00 Ry     beta= 0.70
     Davidson diagonalization with overlap
     ethr =  8.17E-06,  avg # of iterations =  2.0

     negative rho (up, down):  3.543E-05 0.000E+00

     total cpu time spent up to now is       24.3 secs

     total energy              =    -236.25542421 Ry
     estimated scf accuracy    <       0.00491647 Ry

     iteration #  3     ecut=    20.00 Ry     beta= 0.70
     Davidson diagonalization with overlap
     ethr =  6.30E-06,  avg # of iterations =  2.0

     negative rho (up, down):  2.311E-05 0.000E+00

     total cpu time spent up to now is       25.1 secs

     total energy              =    -236.25643178 Ry
     estimated scf accuracy    <       0.00196460 Ry

     iteration #  4     ecut=    20.00 Ry     beta= 0.70
     Davidson diagonalization with overlap
     ethr =  2.52E-06,  avg # of iterations =  2.0

     negative rho (up, down):  1.341E-05 0.000E+00

     total cpu time spent up to now is       25.8 secs

     total energy              =    -236.25683000 Ry
     estimated scf accuracy    <       0.00010444 Ry

     iteration #  5     ecut=    20.00 Ry     beta= 0.70
     Davidson diagonalization with overlap
     ethr =  1.34E-07,  avg # of iterations =  2.0

     negative rho (up, down):  1.302E-05 0.000E+00

     total cpu time spent up to now is       26.7 secs

     total energy              =    -236.25685015 Ry
     estimated scf accuracy    <       0.00000744 Ry

     iteration #  6     ecut=    20.00 Ry     beta= 0.70
     Davidson diagonalization with overlap
     ethr =  9.53E-09,  avg # of iterations =  2.0

     negative rho (up, down):  1.288E-05 0.000E+00

     total cpu time spent up to now is       27.5 secs

     total energy              =    -236.25685181 Ry
     estimated scf accuracy    <       0.00000196 Ry

     iteration #  7     ecut=    20.00 Ry     beta= 0.70
     Davidson diagonalization with overlap
     ethr =  2.51E-09,  avg # of iterations =  2.0

     negative rho (up, down):  1.282E-05 0.000E+00

     total cpu time spent up to now is       28.2 secs

     total energy              =    -236.25685230 Ry
     estimated scf accuracy    <       0.00000023 Ry

     iteration #  8     ecut=    20.00 Ry     beta= 0.70
     Davidson diagonalization with overlap
     ethr =  2.95E-10,  avg # of iterations =  2.0

     negative rho (up, down):  1.282E-05 0.000E+00

     total cpu time spent up to now is       29.1 secs

     total energy              =    -236.25685234 Ry
     estimated scf accuracy    <       0.00000001 Ry

     iteration #  9     ecut=    20.00 Ry     beta= 0.70
     Davidson diagonalization with overlap
     ethr =  1.55E-11,  avg # of iterations =  3.0

     negative rho (up, down):  1.282E-05 0.000E+00

     total cpu time spent up to now is       30.0 secs

     End of self-consistent calculation

          k = 0.0000 0.0000 0.0000 (  1774 PWs)   bands (ev):

   -21.7235 -18.2990 -16.3127 -16.1886 -16.1168 -15.9338 -15.8652 -14.4875
   -12.0169 -11.7262 -11.4969 -11.4800  -9.8686  -9.6132  -9.1238  -9.0311
    -8.8584  -8.7319  -8.7016  -8.4908  -6.4917  -5.6068  -5.2882  -5.2095
    -5.1849  -4.9687  -4.7031  -4.6695  -3.9897  -3.8677  -3.8244  -3.7069
    -3.5466  -2.3654  -2.0215  -1.9473  -1.0389  -0.3131   0.6020   1.4910
     2.1669   3.7888   4.1495   5.8097   6.0139   6.1296   6.2894

     the Fermi energy is     0.7274 ev

!    total energy              =    -236.25685235 Ry
     estimated scf accuracy    <          3.4E-09 Ry
     smearing contrib. (-TS)   =       0.00163099 Ry
     internal energy E=F+TS    =    -236.25848333 Ry

     The total energy is F=E-TS. E is the sum of the following terms:
     one-electron contribution =    -560.60951109 Ry
     hartree contribution      =     302.36163021 Ry
     xc contribution           =     -70.28898522 Ry
     ewald contribution        =      92.27838277 Ry

     convergence has been achieved in   9 iterations

     Forces acting on atoms (cartesian axes, Ry/au):

     atom    1 type  1   force =     0.04428419    0.03992847   -0.00838898
     atom    2 type  1   force =    -0.00660948    0.01737988   -0.00875702
     atom    3 type  1   force =     0.00044076    0.01625618   -0.00387572
     atom    4 type  1   force =    -0.04294602    0.03931885   -0.00839871
     atom    5 type  1   force =     0.00038269    0.01355382    0.04216872
     atom    6 type  1   force =     0.02039375    0.00716027   -0.00604267
     atom    7 type  1   force =     0.00001103    0.01855337   -0.00238509
     atom    8 type  1   force =     0.00786602    0.01731780   -0.00872944
     atom    9 type  1   force =    -0.02017995    0.00690010   -0.00605581
     atom   10 type  1   force =     0.02051509   -0.00701820   -0.00610350
     atom   11 type  1   force =    -0.00735938   -0.01672482   -0.00874718
     atom   12 type  1   force =    -0.00001590   -0.01832014   -0.00238715
     atom   13 type  1   force =    -0.02091010   -0.00736440   -0.00606103
     atom   14 type  1   force =    -0.00021610   -0.01325609    0.04219236
     atom   15 type  1   force =     0.04338606   -0.03956582   -0.00840626
     atom   16 type  1   force =    -0.00044035   -0.01659980   -0.00387154
     atom   17 type  1   force =     0.00630230   -0.01691887   -0.00876005
     atom   18 type  1   force =    -0.04475376   -0.04032985   -0.00839622
     atom   19 type  2   force =    -0.00015085   -0.00027075    0.02100530

     Total force =     0.153721     Total SCF correction =     0.000152
     Energy error            =      1.6E-02
     Gradient error          =      4.5E-02

     number of scf cycles    =   3
     number of bfgs steps    =   2

     energy   old            =    -236.2410074141 Ry
     energy   new            =    -236.2568523454 Ry

     CASE: energy  _new < energy  _old

     new trust radius        =       0.0561013939 bohr
     new conv_thr            =       0.0000000045 Ry


ATOMIC_POSITIONS (angstrom)
C            -0.0093410685       -0.0161720663       -0.0075889913
C            -1.2263567151        2.1159329633       -0.0127565258
C            -2.4629296747        4.2797946336       -0.0014837147
C             2.4725881575       -0.0165507344       -0.0075978776
C             1.2311918917        2.1197553362        0.0816994883
C            -0.0340276174        4.2744489130       -0.0362321539
C             4.9259639325        0.0110110614       -0.0074795266
C             3.6892511295        2.1160031929       -0.0127499025
C             2.4967357154        4.2742888195       -0.0362492368
C            -0.0339333462        1.4133114554       -0.0362344028
C            -1.2265959826        3.5716107830       -0.0127516220
C            -2.4630677099        5.6767830603       -0.0074806188
C             2.4968900090        1.4132090804       -0.0362152689
C             1.2315724506        3.5676237172        0.0816939824
C            -0.0100729309        5.7040994944       -0.0076025024
C             4.9257901390        1.4078861845       -0.0014890443
C             3.6892754144        3.5717436119       -0.0127541420
C             2.4724447371        5.7038186407       -0.0075945696
O             1.2311993087        2.8434863931        1.3908666293



     Writing output data file /tmp/Graphene3x3-O_PBE.save/
     NEW-OLD atomic charge density approx. for the potential

     negative rho (up, down):  1.237E-05 0.000E+00

     total cpu time spent up to now is       30.9 secs

     Self-consistent Calculation

     iteration #  1     ecut=    20.00 Ry     beta= 0.70
     Davidson diagonalization with overlap
     ethr =  1.00E-06,  avg # of iterations = 11.0

     negative rho (up, down):  1.219E-05 0.000E+00

     total cpu time spent up to now is       32.3 secs

     total energy              =    -236.26120958 Ry
     estimated scf accuracy    <       0.00547219 Ry

     iteration #  2     ecut=    20.00 Ry     beta= 0.70
     Davidson diagonalization with overlap
     ethr =  7.02E-06,  avg # of iterations =  2.0

     negative rho (up, down):  1.724E-05 0.000E+00

     total cpu time spent up to now is       33.1 secs

     total energy              =    -236.26222436 Ry
     estimated scf accuracy    <       0.00161039 Ry

     iteration #  3     ecut=    20.00 Ry     beta= 0.70
     Davidson diagonalization with overlap
     ethr =  2.06E-06,  avg # of iterations =  3.0

     negative rho (up, down):  1.531E-05 0.000E+00

     total cpu time spent up to now is       34.0 secs

     total energy              =    -236.26255363 Ry
     estimated scf accuracy    <       0.00045172 Ry

     iteration #  4     ecut=    20.00 Ry     beta= 0.70
     Davidson diagonalization with overlap
     ethr =  5.79E-07,  avg # of iterations =  3.0

     negative rho (up, down):  1.261E-05 0.000E+00

     total cpu time spent up to now is       34.8 secs

     total energy              =    -236.26266216 Ry
     estimated scf accuracy    <       0.00008752 Ry

     iteration #  5     ecut=    20.00 Ry     beta= 0.70
     Davidson diagonalization with overlap
     ethr =  1.12E-07,  avg # of iterations =  2.0

     negative rho (up, down):  1.223E-05 0.000E+00

     total cpu time spent up to now is       35.6 secs

     total energy              =    -236.26267784 Ry
     estimated scf accuracy    <       0.00000333 Ry

     iteration #  6     ecut=    20.00 Ry     beta= 0.70
     Davidson diagonalization with overlap
     ethr =  4.27E-09,  avg # of iterations =  3.0

     negative rho (up, down):  1.222E-05 0.000E+00

     total cpu time spent up to now is       36.5 secs

     total energy              =    -236.26267890 Ry
     estimated scf accuracy    <       0.00000143 Ry

     iteration #  7     ecut=    20.00 Ry     beta= 0.70
     Davidson diagonalization with overlap
     ethr =  1.83E-09,  avg # of iterations =  2.0

     negative rho (up, down):  1.222E-05 0.000E+00

     total cpu time spent up to now is       37.3 secs

     total energy              =    -236.26267915 Ry
     estimated scf accuracy    <       0.00000022 Ry

     iteration #  8     ecut=    20.00 Ry     beta= 0.70
     Davidson diagonalization with overlap
     ethr =  2.77E-10,  avg # of iterations =  2.0

     negative rho (up, down):  1.222E-05 0.000E+00

     total cpu time spent up to now is       38.1 secs

     total energy              =    -236.26267920 Ry
     estimated scf accuracy    <       0.00000008 Ry

     iteration #  9     ecut=    20.00 Ry     beta= 0.70
     Davidson diagonalization with overlap
     ethr =  1.07E-10,  avg # of iterations =  2.0

     negative rho (up, down):  1.222E-05 0.000E+00

     total cpu time spent up to now is       38.9 secs

     End of self-consistent calculation

          k = 0.0000 0.0000 0.0000 (  1774 PWs)   bands (ev):

   -21.9500 -18.2968 -16.1721 -16.1611 -16.0567 -16.0245 -15.9257 -14.5472
   -11.8311 -11.7951 -11.6079 -11.4515  -9.8305  -9.6575  -9.0055  -8.9994
    -8.8481  -8.7670  -8.7643  -8.6060  -6.4832  -5.6620  -5.3280  -5.2220
    -5.0354  -4.9955  -4.7893  -4.7828  -4.0024  -3.7622  -3.7451  -3.7272
    -3.5711  -2.2226  -2.1341  -2.1086  -1.1323  -0.2976   0.8125   1.2890
     2.0980   3.8485   4.1486   5.8333   6.0146   6.0273   6.1679

     the Fermi energy is     0.9378 ev

!    total energy              =    -236.26267921 Ry
     estimated scf accuracy    <          2.7E-09 Ry
     smearing contrib. (-TS)   =       0.00163028 Ry
     internal energy E=F+TS    =    -236.26430949 Ry

     The total energy is F=E-TS. E is the sum of the following terms:
     one-electron contribution =    -559.94470433 Ry
     hartree contribution      =     301.99505482 Ry
     xc contribution           =     -70.26772094 Ry
     ewald contribution        =      91.95306096 Ry

     convergence has been achieved in   9 iterations

     Forces acting on atoms (cartesian axes, Ry/au):

     atom    1 type  1   force =    -0.01628800   -0.00839486   -0.00818691
     atom    2 type  1   force =     0.03940690   -0.01967051   -0.00889637
     atom    3 type  1   force =    -0.00042372    0.01512789   -0.00720817
     atom    4 type  1   force =     0.01445587   -0.00795039   -0.00816307
     atom    5 type  1   force =     0.00019728   -0.00061625    0.02412585
     atom    6 type  1   force =    -0.03217516   -0.02807852    0.00086568
     atom    7 type  1   force =    -0.00044456    0.01405319   -0.00295569
     atom    8 type  1   force =    -0.03919874   -0.01955478   -0.00888725
     atom    9 type  1   force =     0.03147625   -0.02750133    0.00086506
     atom   10 type  1   force =    -0.03119227    0.02756500    0.00077232
     atom   11 type  1   force =     0.03918419    0.01958389   -0.00889591
     atom   12 type  1   force =     0.00037914   -0.01432349   -0.00295376
     atom   13 type  1   force =     0.03184366    0.02795717    0.00083363
     atom   14 type  1   force =    -0.00029029    0.00041862    0.02419713
     atom   15 type  1   force =    -0.01444561    0.00816489   -0.00816263
     atom   16 type  1   force =     0.00044886   -0.01488009   -0.00720008
     atom   17 type  1   force =    -0.03919999    0.01962267   -0.00889143
     atom   18 type  1   force =     0.01641376    0.00867046   -0.00818621
     atom   19 type  2   force =    -0.00014756   -0.00019357    0.03692781

     Total force =     0.141844     Total SCF correction =     0.000085
     Energy error            =      5.8E-03
     Gradient error          =      3.9E-02

     number of scf cycles    =   4
     number of bfgs steps    =   3

     energy   old            =    -236.2568523454 Ry
     energy   new            =    -236.2626792088 Ry

     CASE: energy  _new < energy  _old

     new trust radius        =       0.0582525508 bohr
     new conv_thr            =       0.0000000039 Ry


ATOMIC_POSITIONS (angstrom)
C            -0.0095955258       -0.0165951689       -0.0139043486
C            -1.2182768484        2.1112003016       -0.0199914477
C            -2.4630251008        4.2843107548       -0.0053479294
C             2.4725173631       -0.0169878934       -0.0139073223
C             1.2313183435        2.1221035058        0.1123996702
C            -0.0371103267        4.2650021414       -0.0413948228
C             4.9258002759        0.0153177533       -0.0099986457
C             3.6814181804        2.1112499660       -0.0199753869
C             2.4995079071        4.2649163819       -0.0414171393
C            -0.0365931219        1.4227138334       -0.0414485049
C            -1.2187211488        3.5764780861       -0.0199840096
C            -2.4629081197        5.6724075942       -0.0099996865
C             2.4998530746        1.4226345472       -0.0413918974
C             1.2314558181        3.5652723141        0.1124298700
C            -0.0099208707        5.7045598631       -0.0139142741
C             4.9258893699        1.4034046760       -0.0053503290
C             3.6812209522        3.5765482353       -0.0199871208
C             2.4726745209        5.7042608566       -0.0139119797
O             1.2310730970        2.8432867913        1.4170953046



     Writing output data file /tmp/Graphene3x3-O_PBE.save/
     NEW-OLD atomic charge density approx. for the potential

     negative rho (up, down):  1.194E-05 0.000E+00

     total cpu time spent up to now is       39.8 secs

     Self-consistent Calculation

     iteration #  1     ecut=    20.00 Ry     beta= 0.70
     Davidson diagonalization with overlap
     ethr =  1.00E-06,  avg # of iterations =  7.0

     negative rho (up, down):  1.118E-05 0.000E+00

     total cpu time spent up to now is       41.1 secs

     total energy              =    -236.27019474 Ry
     estimated scf accuracy    <       0.00240657 Ry

     iteration #  2     ecut=    20.00 Ry     beta= 0.70
     Davidson diagonalization with overlap
     ethr =  3.09E-06,  avg # of iterations =  2.0

     negative rho (up, down):  1.701E-05 0.000E+00

     total cpu time spent up to now is       41.9 secs

     total energy              =    -236.27039630 Ry
     estimated scf accuracy    <       0.00098690 Ry

     iteration #  3     ecut=    20.00 Ry     beta= 0.70
     Davidson diagonalization with overlap
     ethr =  1.27E-06,  avg # of iterations =  2.0

     negative rho (up, down):  1.459E-05 0.000E+00

     total cpu time spent up to now is       42.9 secs

     total energy              =    -236.27060870 Ry
     estimated scf accuracy    <       0.00064068 Ry

     iteration #  4     ecut=    20.00 Ry     beta= 0.70
     Davidson diagonalization with overlap
     ethr =  8.21E-07,  avg # of iterations =  2.0

     negative rho (up, down):  1.209E-05 0.000E+00

     total cpu time spent up to now is       43.7 secs

     total energy              =    -236.27072367 Ry
     estimated scf accuracy    <       0.00006244 Ry

     iteration #  5     ecut=    20.00 Ry     beta= 0.70
     Davidson diagonalization with overlap
     ethr =  8.00E-08,  avg # of iterations =  2.0

     negative rho (up, down):  1.127E-05 0.000E+00

     total cpu time spent up to now is       44.5 secs

     total energy              =    -236.27073842 Ry
     estimated scf accuracy    <       0.00001057 Ry

     iteration #  6     ecut=    20.00 Ry     beta= 0.70
     Davidson diagonalization with overlap
     ethr =  1.36E-08,  avg # of iterations =  2.0

     negative rho (up, down):  1.113E-05 0.000E+00

     total cpu time spent up to now is       45.3 secs

     total energy              =    -236.27074026 Ry
     estimated scf accuracy    <       0.00000108 Ry

     iteration #  7     ecut=    20.00 Ry     beta= 0.70
     Davidson diagonalization with overlap
     ethr =  1.38E-09,  avg # of iterations =  2.0

     negative rho (up, down):  1.111E-05 0.000E+00

     total cpu time spent up to now is       46.1 secs

     total energy              =    -236.27074053 Ry
     estimated scf accuracy    <       0.00000012 Ry

     iteration #  8     ecut=    20.00 Ry     beta= 0.70
     Davidson diagonalization with overlap
     ethr =  1.58E-10,  avg # of iterations =  2.0

     negative rho (up, down):  1.110E-05 0.000E+00

     total cpu time spent up to now is       46.9 secs

     total energy              =    -236.27074056 Ry
     estimated scf accuracy    <          9.5E-09 Ry

     iteration #  9     ecut=    20.00 Ry     beta= 0.70
     Davidson diagonalization with overlap
     ethr =  1.22E-11,  avg # of iterations =  2.0

     negative rho (up, down):  1.110E-05 0.000E+00

     total cpu time spent up to now is       47.7 secs

     End of self-consistent calculation

          k = 0.0000 0.0000 0.0000 (  1774 PWs)   bands (ev):

   -21.9979 -18.2972 -16.1994 -16.1585 -16.0866 -16.0013 -15.8548 -14.6042
   -11.8665 -11.7858 -11.5197 -11.4782  -9.8370  -9.6203  -9.0331  -9.0257
    -8.8668  -8.7279  -8.7208  -8.5841  -6.4825  -5.7004  -5.3394  -5.3291
    -5.0348  -5.0306  -4.7419  -4.7085  -3.9647  -3.7712  -3.7376  -3.7132
    -3.5243  -2.2602  -2.1843  -2.0648  -1.1772  -0.3219   0.7244   1.3810
     2.1311   3.8530   4.1451   5.7388   6.0467   6.0508   6.1525

     the Fermi energy is     0.8497 ev

!    total energy              =    -236.27074056 Ry
     estimated scf accuracy    <          4.8E-10 Ry
     smearing contrib. (-TS)   =       0.00163099 Ry
     internal energy E=F+TS    =    -236.27237155 Ry

     The total energy is F=E-TS. E is the sum of the following terms:
     one-electron contribution =    -558.77887935 Ry
     hartree contribution      =     301.40382267 Ry
     xc contribution           =     -70.27114406 Ry
     ewald contribution        =      91.37382920 Ry

     convergence has been achieved in   9 iterations

     Forces acting on atoms (cartesian axes, Ry/au):

     atom    1 type  1   force =    -0.01661145    0.00092998   -0.00820230
     atom    2 type  1   force =     0.00903612    0.00313401   -0.00734303
     atom    3 type  1   force =    -0.00037654   -0.00304381   -0.01029857
     atom    4 type  1   force =     0.01623933    0.00152209   -0.00818410
     atom    5 type  1   force =     0.00018794   -0.00431116    0.01318435
     atom    6 type  1   force =    -0.00673435    0.00370113    0.00711224
     atom    7 type  1   force =     0.00024591   -0.00410443   -0.00413399
     atom    8 type  1   force =    -0.00928651    0.00321557   -0.00732021
     atom    9 type  1   force =     0.00683639    0.00383263    0.00711893
     atom   10 type  1   force =    -0.00694979   -0.00382206    0.00696998
     atom   11 type  1   force =     0.00890427   -0.00348614   -0.00731895
     atom   12 type  1   force =    -0.00024564    0.00407842   -0.00412950
     atom   13 type  1   force =     0.00703622   -0.00368629    0.00706481
     atom   14 type  1   force =    -0.00033851    0.00408343    0.01328183
     atom   15 type  1   force =    -0.01638874   -0.00134253   -0.00818014
     atom   16 type  1   force =     0.00039350    0.00329277   -0.01028819
     atom   17 type  1   force =    -0.00869940   -0.00326959   -0.00732795
     atom   18 type  1   force =     0.01685099   -0.00065536   -0.00817999
     atom   19 type  2   force =    -0.00009972   -0.00006866    0.03617479

     Total force =     0.066234     Total SCF correction =     0.000052
     Energy error            =      8.1E-03
     Gradient error          =      3.6E-02

     number of scf cycles    =   5
     number of bfgs steps    =   4

     energy   old            =    -236.2626792088 Ry
     energy   new            =    -236.2707405592 Ry

     CASE: energy  _new < energy  _old

     new trust radius        =       0.1094986309 bohr
     new conv_thr            =       0.0000000036 Ry


ATOMIC_POSITIONS (angstrom)
C            -0.0180571014       -0.0133402387       -0.0272268874
C            -1.2104067483        2.1126041105       -0.0338367609
C            -2.4633368280        4.2851232959       -0.0170861904
C             2.4807900339       -0.0134175378       -0.0272141777
C             1.2315897609        2.1216701748        0.1612100902
C            -0.0392934856        4.2637095013       -0.0441289395
C             4.9259217715        0.0152223649       -0.0162495064
C             3.6736604863        2.1126669826       -0.0337909708
C             2.5015607160        4.2636658197       -0.0441535156
C            -0.0386519346        1.4239914166       -0.0443433457
C            -1.2112042025        3.5750030844       -0.0338059402
C            -2.4630140676        5.6724811700       -0.0162474193
C             2.5021948325        1.4239373626       -0.0441745164
C             1.2311022424        3.5655677837        0.1613481474
C            -0.0182097213        5.7011017406       -0.0272214452
C             4.9262167676        1.4027690248       -0.0170784618
C             3.6736001972        3.5751598516       -0.0338189029
C             2.4812642741        5.7011736174       -0.0272195812
O             1.2308508468        2.8429950152        1.4750383238



     Writing output data file /tmp/Graphene3x3-O_PBE.save/
     NEW-OLD atomic charge density approx. for the potential

     negative rho (up, down):  1.133E-05 0.000E+00

     total cpu time spent up to now is       48.7 secs

     Self-consistent Calculation

     iteration #  1     ecut=    20.00 Ry     beta= 0.70
     Davidson diagonalization with overlap
     ethr =  1.00E-06,  avg # of iterations =  7.0

     negative rho (up, down):  9.306E-06 0.000E+00

     total cpu time spent up to now is       49.9 secs

     total energy              =    -236.27580816 Ry
     estimated scf accuracy    <       0.00501011 Ry

     iteration #  2     ecut=    20.00 Ry     beta= 0.70
     Davidson diagonalization with overlap
     ethr =  6.42E-06,  avg # of iterations =  2.0

     negative rho (up, down):  2.404E-05 0.000E+00

     total cpu time spent up to now is       50.8 secs

     total energy              =    -236.27631728 Ry
     estimated scf accuracy    <       0.00149272 Ry

     iteration #  3     ecut=    20.00 Ry     beta= 0.70
     Davidson diagonalization with overlap
     ethr =  1.91E-06,  avg # of iterations =  3.0

     negative rho (up, down):  1.552E-05 0.000E+00

     total cpu time spent up to now is       51.7 secs

     total energy              =    -236.27665838 Ry
     estimated scf accuracy    <       0.00068763 Ry

     iteration #  4     ecut=    20.00 Ry     beta= 0.70
     Davidson diagonalization with overlap
     ethr =  8.82E-07,  avg # of iterations =  2.0

     negative rho (up, down):  1.035E-05 0.000E+00

     total cpu time spent up to now is       52.5 secs

     total energy              =    -236.27679610 Ry
     estimated scf accuracy    <       0.00007817 Ry

     iteration #  5     ecut=    20.00 Ry     beta= 0.70
     Davidson diagonalization with overlap
     ethr =  1.00E-07,  avg # of iterations =  2.0

     negative rho (up, down):  9.513E-06 0.000E+00

     total cpu time spent up to now is       53.4 secs

     total energy              =    -236.27681211 Ry
     estimated scf accuracy    <       0.00002058 Ry

     iteration #  6     ecut=    20.00 Ry     beta= 0.70
     Davidson diagonalization with overlap
     ethr =  2.64E-08,  avg # of iterations =  2.0

     negative rho (up, down):  9.359E-06 0.000E+00

     total cpu time spent up to now is       54.3 secs

     total energy              =    -236.27681601 Ry
     estimated scf accuracy    <       0.00000304 Ry

     iteration #  7     ecut=    20.00 Ry     beta= 0.70
     Davidson diagonalization with overlap
     ethr =  3.90E-09,  avg # of iterations =  2.0

     negative rho (up, down):  9.340E-06 0.000E+00

     total cpu time spent up to now is       55.3 secs

     total energy              =    -236.27681663 Ry
     estimated scf accuracy    <       0.00000051 Ry

     iteration #  8     ecut=    20.00 Ry     beta= 0.70
     Davidson diagonalization with overlap
     ethr =  6.60E-10,  avg # of iterations =  2.0

     negative rho (up, down):  9.324E-06 0.000E+00

     total cpu time spent up to now is       56.3 secs

     total energy              =    -236.27681674 Ry
     estimated scf accuracy    <          9.5E-09 Ry

     iteration #  9     ecut=    20.00 Ry     beta= 0.70
     Davidson diagonalization with overlap
     ethr =  1.21E-11,  avg # of iterations =  2.0

     negative rho (up, down):  9.324E-06 0.000E+00

     total cpu time spent up to now is       57.3 secs

     End of self-consistent calculation

          k = 0.0000 0.0000 0.0000 (  1774 PWs)   bands (ev):

   -21.8163 -18.3096 -16.2151 -16.1895 -16.1341 -15.9377 -15.8423 -14.6436
   -11.9309 -11.6767 -11.5137 -11.4993  -9.8317  -9.5927  -9.0728  -9.0552
    -8.8459  -8.6729  -8.6680  -8.5544  -6.4959  -5.7462  -5.3724  -5.2738
    -5.0572  -5.0296  -4.7360  -4.7126  -3.8984  -3.7706  -3.7440  -3.6632
    -3.5219  -2.2426  -2.2155  -2.1127  -1.2225  -0.3453   0.6854   1.3911
     2.1530   3.7767   4.1394   5.6879   5.9961   6.0830   6.1939

     the Fermi energy is     0.8108 ev

!    total energy              =    -236.27681675 Ry
     estimated scf accuracy    <          5.4E-10 Ry
     smearing contrib. (-TS)   =       0.00163099 Ry
     internal energy E=F+TS    =    -236.27844773 Ry

     The total energy is F=E-TS. E is the sum of the following terms:
     one-electron contribution =    -555.18691357 Ry
     hartree contribution      =     299.59955675 Ry
     xc contribution           =     -70.24235233 Ry
     ewald contribution        =      89.55126142 Ry

     convergence has been achieved in   9 iterations

     Forces acting on atoms (cartesian axes, Ry/au):

     atom    1 type  1   force =     0.01291229   -0.00322088   -0.00601138
     atom    2 type  1   force =    -0.01325044    0.00177710   -0.00486360
     atom    3 type  1   force =     0.00029293   -0.00960687   -0.01446743
     atom    4 type  1   force =    -0.01195076   -0.00371831   -0.00598795
     atom    5 type  1   force =    -0.00034574   -0.00650319    0.00507693
     atom    6 type  1   force =     0.01007103    0.00277176    0.01587121
     atom    7 type  1   force =     0.00018824   -0.01196773   -0.00698952
     atom    8 type  1   force =     0.01327703    0.00178981   -0.00482795
     atom    9 type  1   force =    -0.01038963    0.00292423    0.01596017
     atom   10 type  1   force =     0.01056965   -0.00299742    0.01575470
     atom   11 type  1   force =    -0.01262343   -0.00168893   -0.00481953
     atom   12 type  1   force =    -0.00010095    0.01246510   -0.00698456
     atom   13 type  1   force =    -0.01048466   -0.00286286    0.01583051
     atom   14 type  1   force =     0.00043310    0.00644006    0.00516180
     atom   15 type  1   force =     0.01193601    0.00366746   -0.00597699
     atom   16 type  1   force =    -0.00023653    0.00938658   -0.01445275
     atom   17 type  1   force =     0.01262150   -0.00186251   -0.00481839
     atom   18 type  1   force =    -0.01290151    0.00318906   -0.00594805
     atom   19 type  2   force =    -0.00001814    0.00001754    0.01249279

     Total force =     0.065905     Total SCF correction =     0.000057
     Energy error            =      6.1E-03
     Gradient error          =      1.6E-02

     number of scf cycles    =   6
     number of bfgs steps    =   5

     energy   old            =    -236.2707405592 Ry
     energy   new            =    -236.2768167458 Ry

     CASE: energy  _new < energy  _old

     new trust radius        =       0.0972621650 bohr
     new conv_thr            =       0.0000000016 Ry


ATOMIC_POSITIONS (angstrom)
C            -0.0141071100       -0.0139574576       -0.0410322372
C            -1.2095351117        2.1114288887       -0.0476364681
C            -2.4633545076        4.2826410779       -0.0345744856
C             2.4771814033       -0.0142028044       -0.0409927404
C             1.2315579899        2.1178716915        0.2041679081
C            -0.0375984371        4.2600241677       -0.0376269174
C             4.9260296501        0.0105437701       -0.0253442618
C             3.6729971602        2.1115097665       -0.0475473253
C             2.4994359139        4.2601623934       -0.0375959643
C            -0.0363414292        1.4274719169       -0.0380253348
C            -1.2102036630        3.5762551362       -0.0475633380
C            -2.4630600844        5.6774481698       -0.0253372193
C             2.5002260744        1.4275469819       -0.0377310731
C             1.2311505448        3.5692414496        0.2044343147
C            -0.0145868344        5.7019268640       -0.0409939168
C             4.9262849466        1.4052178293       -0.0345503272
C             3.6724547764        3.5763209079       -0.0475807392
C             2.4773829484        5.7018730126       -0.0409762457
O             1.2306636094        2.8427607782        1.5265063714



     Writing output data file /tmp/Graphene3x3-O_PBE.save/
     NEW-OLD atomic charge density approx. for the potential

     negative rho (up, down):  8.762E-06 0.000E+00

     total cpu time spent up to now is       58.3 secs

     Self-consistent Calculation

     iteration #  1     ecut=    20.00 Ry     beta= 0.70
     Davidson diagonalization with overlap
     ethr =  1.00E-06,  avg # of iterations =  6.0

     negative rho (up, down):  7.475E-06 0.000E+00

     total cpu time spent up to now is       59.7 secs

     total energy              =    -236.28004042 Ry
     estimated scf accuracy    <       0.00411122 Ry

     iteration #  2     ecut=    20.00 Ry     beta= 0.70
     Davidson diagonalization with overlap
     ethr =  5.27E-06,  avg # of iterations =  2.0

     negative rho (up, down):  2.095E-05 0.000E+00

     total cpu time spent up to now is       60.9 secs

     total energy              =    -236.28035068 Ry
     estimated scf accuracy    <       0.00141014 Ry

     iteration #  3     ecut=    20.00 Ry     beta= 0.70
     Davidson diagonalization with overlap
     ethr =  1.81E-06,  avg # of iterations =  3.0

     negative rho (up, down):  1.744E-05 0.000E+00

     total cpu time spent up to now is       61.9 secs

     total energy              =    -236.28063161 Ry
     estimated scf accuracy    <       0.00095471 Ry

     iteration #  4     ecut=    20.00 Ry     beta= 0.70
     Davidson diagonalization with overlap
     ethr =  1.22E-06,  avg # of iterations =  2.0

     negative rho (up, down):  8.440E-06 0.000E+00

     total cpu time spent up to now is       62.7 secs

     total energy              =    -236.28082535 Ry
     estimated scf accuracy    <       0.00006567 Ry

     iteration #  5     ecut=    20.00 Ry     beta= 0.70
     Davidson diagonalization with overlap
     ethr =  8.42E-08,  avg # of iterations =  3.0

     negative rho (up, down):  7.721E-06 0.000E+00

     total cpu time spent up to now is       63.6 secs

     total energy              =    -236.28083880 Ry
     estimated scf accuracy    <       0.00002763 Ry

     iteration #  6     ecut=    20.00 Ry     beta= 0.70
     Davidson diagonalization with overlap
     ethr =  3.54E-08,  avg # of iterations =  2.0

     negative rho (up, down):  7.600E-06 0.000E+00

     total cpu time spent up to now is       64.4 secs

     total energy              =    -236.28084338 Ry
     estimated scf accuracy    <       0.00000275 Ry

     iteration #  7     ecut=    20.00 Ry     beta= 0.70
     Davidson diagonalization with overlap
     ethr =  3.52E-09,  avg # of iterations =  2.0

     negative rho (up, down):  7.582E-06 0.000E+00

     total cpu time spent up to now is       65.3 secs

     total energy              =    -236.28084396 Ry
     estimated scf accuracy    <       0.00000030 Ry

     iteration #  8     ecut=    20.00 Ry     beta= 0.70
     Davidson diagonalization with overlap
     ethr =  3.82E-10,  avg # of iterations =  2.0

     negative rho (up, down):  7.575E-06 0.000E+00

     total cpu time spent up to now is       66.1 secs

     total energy              =    -236.28084403 Ry
     estimated scf accuracy    <          9.0E-09 Ry

     iteration #  9     ecut=    20.00 Ry     beta= 0.70
     Davidson diagonalization with overlap
     ethr =  1.15E-11,  avg # of iterations =  4.0

     negative rho (up, down):  7.574E-06 0.000E+00

     total cpu time spent up to now is       67.0 secs

     total energy              =    -236.28084403 Ry
     estimated scf accuracy    <          2.7E-09 Ry

     iteration # 10     ecut=    20.00 Ry     beta= 0.70
     Davidson diagonalization with overlap
     ethr =  3.51E-12,  avg # of iterations =  2.0

     negative rho (up, down):  7.575E-06 0.000E+00

     total cpu time spent up to now is       67.8 secs

     End of self-consistent calculation

          k = 0.0000 0.0000 0.0000 (  1774 PWs)   bands (ev):

   -21.6410 -18.3180 -16.1960 -16.1853 -16.1310 -15.9541 -15.8588 -14.6863
   -11.9338 -11.7019 -11.5070 -11.4801  -9.7997  -9.5903  -9.0861  -9.0150
    -8.8117  -8.6951  -8.6723  -8.5812  -6.5069  -5.7389  -5.4115  -5.2385
    -5.0758  -5.0152  -4.7385  -4.7229  -3.8510  -3.7566  -3.7549  -3.6104
    -3.5419  -2.3100  -2.2760  -2.0884  -1.2564  -0.3041   0.6813   1.3923
     2.0854   3.7533   4.1421   5.6740   5.9615   6.0625   6.1321

     the Fermi energy is     0.8066 ev

!    total energy              =    -236.28084403 Ry
     estimated scf accuracy    <          2.7E-10 Ry
     smearing contrib. (-TS)   =       0.00163099 Ry
     internal energy E=F+TS    =    -236.28247502 Ry

     The total energy is F=E-TS. E is the sum of the following terms:
     one-electron contribution =    -551.77279904 Ry
     hartree contribution      =     297.87429544 Ry
     xc contribution           =     -70.20195428 Ry
     ewald contribution        =      87.81798287 Ry

     convergence has been achieved in  10 iterations

     Forces acting on atoms (cartesian axes, Ry/au):

     atom    1 type  1   force =    -0.00353154    0.00267107   -0.00254155
     atom    2 type  1   force =    -0.01408191    0.00763024   -0.00247085
     atom    3 type  1   force =     0.00007989    0.00341239   -0.01741124
     atom    4 type  1   force =     0.00329252    0.00281642   -0.00248610
     atom    5 type  1   force =    -0.00003708    0.01059863    0.00223463
     atom    6 type  1   force =     0.01356612    0.01177502    0.01856624
     atom    7 type  1   force =    -0.00010606    0.00655424   -0.00989156
     atom    8 type  1   force =     0.01394510    0.00771557   -0.00243163
     atom    9 type  1   force =    -0.01275711    0.01145040    0.01859897
     atom   10 type  1   force =     0.01206363   -0.01128232    0.01836932
     atom   11 type  1   force =    -0.01475683   -0.00815496   -0.00242932
     atom   12 type  1   force =     0.00011070   -0.00700341   -0.00989431
     atom   13 type  1   force =    -0.01262176   -0.01144282    0.01848758
     atom   14 type  1   force =    -0.00000463   -0.01038327    0.00229366
     atom   15 type  1   force =    -0.00330164   -0.00281565   -0.00245609
     atom   16 type  1   force =    -0.00008711   -0.00312920   -0.01740176
     atom   17 type  1   force =     0.01469671   -0.00779670   -0.00240478
     atom   18 type  1   force =     0.00354629   -0.00267866   -0.00244539
     atom   19 type  2   force =    -0.00001529    0.00006302   -0.00428584

     Total force =     0.070074     Total SCF correction =     0.000030
     Energy error            =      4.0E-03
     Gradient error          =      1.9E-02

     number of scf cycles    =   7
     number of bfgs steps    =   6

     energy   old            =    -236.2768167458 Ry
     energy   new            =    -236.2808440274 Ry

     CASE: energy  _new < energy  _old

     new trust radius        =       0.1409618960 bohr
     new conv_thr            =       0.0000000019 Ry


ATOMIC_POSITIONS (angstrom)
C            -0.0152617272       -0.0140472993       -0.0636377831
C            -1.2115521594        2.1120109231       -0.0704678333
C            -2.4634113930        4.2857651852       -0.0736565316
C             2.4781823181       -0.0142988048       -0.0635121706
C             1.2315502887        2.1221362297        0.2715407352
C            -0.0304371867        4.2584798365       -0.0146066026
C             4.9259746690        0.0132345808       -0.0463095253
C             3.6752457040        2.1122034243       -0.0702866868
C             2.4922201584        4.2586964471       -0.0144785735
C            -0.0293983481        1.4290661896       -0.0154336473
C            -1.2127021368        3.5753378643       -0.0703049673
C            -2.4629343536        5.6746893856       -0.0462980088
C             2.4934293030        1.4292471787       -0.0148604826
C             1.2311271158        3.5649574965        0.2720417709
C            -0.0155624381        5.7021200328       -0.0634808525
C             4.9264056883        1.4023427284       -0.0736013016
C             3.6746839911        3.5755852453       -0.0703071169
C             2.4786596718        5.7021189006       -0.0634392994
O             1.2303586747        2.8424389955        1.6010988770



     Writing output data file /tmp/Graphene3x3-O_PBE.save/
     NEW-OLD atomic charge density approx. for the potential

     negative rho (up, down):  1.285E-05 0.000E+00

     total cpu time spent up to now is       68.6 secs

     Self-consistent Calculation

     iteration #  1     ecut=    20.00 Ry     beta= 0.70
     Davidson diagonalization with overlap
     ethr =  1.00E-06,  avg # of iterations =  8.0

     negative rho (up, down):  7.324E-06 0.000E+00

     total cpu time spent up to now is       70.0 secs

     total energy              =    -236.28330489 Ry
     estimated scf accuracy    <       0.01159582 Ry

     iteration #  2     ecut=    20.00 Ry     beta= 0.70
     Davidson diagonalization with overlap
     ethr =  1.49E-05,  avg # of iterations =  2.0

     negative rho (up, down):  4.094E-05 0.000E+00

     total cpu time spent up to now is       70.9 secs

     total energy              =    -236.28401652 Ry
     estimated scf accuracy    <       0.00457935 Ry

     iteration #  3     ecut=    20.00 Ry     beta= 0.70
     Davidson diagonalization with overlap
     ethr =  5.87E-06,  avg # of iterations =  3.0

     negative rho (up, down):  4.162E-05 0.000E+00

     total cpu time spent up to now is       71.7 secs

     total energy              =    -236.28493473 Ry
     estimated scf accuracy    <       0.00358656 Ry

     iteration #  4     ecut=    20.00 Ry     beta= 0.70
     Davidson diagonalization with overlap
     ethr =  4.60E-06,  avg # of iterations =  2.0

     negative rho (up, down):  8.432E-06 0.000E+00

     total cpu time spent up to now is       72.5 secs

     total energy              =    -236.28560919 Ry
     estimated scf accuracy    <       0.00014728 Ry

     iteration #  5     ecut=    20.00 Ry     beta= 0.70
     Davidson diagonalization with overlap
     ethr =  1.89E-07,  avg # of iterations =  3.0

     negative rho (up, down):  7.019E-06 0.000E+00

     total cpu time spent up to now is       73.3 secs

     total energy              =    -236.28564279 Ry
     estimated scf accuracy    <       0.00009425 Ry

     iteration #  6     ecut=    20.00 Ry     beta= 0.70
     Davidson diagonalization with overlap
     ethr =  1.21E-07,  avg # of iterations =  2.0

     negative rho (up, down):  6.757E-06 0.000E+00

     total cpu time spent up to now is       74.1 secs

     total energy              =    -236.28565794 Ry
     estimated scf accuracy    <       0.00000248 Ry

     iteration #  7     ecut=    20.00 Ry     beta= 0.70
     Davidson diagonalization with overlap
     ethr =  3.18E-09,  avg # of iterations =  3.0

     negative rho (up, down):  6.663E-06 0.000E+00

     total cpu time spent up to now is       74.9 secs

     total energy              =    -236.28565866 Ry
     estimated scf accuracy    <       0.00000028 Ry

     iteration #  8     ecut=    20.00 Ry     beta= 0.70
     Davidson diagonalization with overlap
     ethr =  3.60E-10,  avg # of iterations =  2.0

     negative rho (up, down):  6.647E-06 0.000E+00

     total cpu time spent up to now is       75.7 secs

     total energy              =    -236.28565873 Ry
     estimated scf accuracy    <       0.00000005 Ry

     iteration #  9     ecut=    20.00 Ry     beta= 0.70
     Davidson diagonalization with overlap
     ethr =  6.01E-11,  avg # of iterations =  2.0

     negative rho (up, down):  6.643E-06 0.000E+00

     total cpu time spent up to now is       76.5 secs

     total energy              =    -236.28565873 Ry
     estimated scf accuracy    <          2.6E-09 Ry

     iteration # 10     ecut=    20.00 Ry     beta= 0.70
     Davidson diagonalization with overlap
     ethr =  3.39E-12,  avg # of iterations =  2.0

     negative rho (up, down):  6.643E-06 0.000E+00

     total cpu time spent up to now is       77.2 secs

     End of self-consistent calculation

          k = 0.0000 0.0000 0.0000 (  1774 PWs)   bands (ev):

   -21.5840 -18.3304 -16.1945 -16.1817 -16.0749 -15.9196 -15.8611 -14.7552
   -11.8835 -11.7008 -11.5308 -11.4901  -9.7738  -9.5808  -9.0572  -9.0426
    -8.8195  -8.6969  -8.6382  -8.5747  -6.5110  -5.7997  -5.3981  -5.1980
    -5.0726  -5.0211  -4.7220  -4.7158  -3.8789  -3.7782  -3.7530  -3.5466
    -3.5205  -2.3616  -2.2503  -2.1477  -1.3257  -0.3264   0.7248   1.3833
     2.0580   3.6469   4.1594   5.6501   5.9514   6.0105   6.0837

     the Fermi energy is     0.8502 ev

!    total energy              =    -236.28565873 Ry
     estimated scf accuracy    <          4.2E-10 Ry
     smearing contrib. (-TS)   =       0.00163099 Ry
     internal energy E=F+TS    =    -236.28728972 Ry

     The total energy is F=E-TS. E is the sum of the following terms:
     one-electron contribution =    -546.79571180 Ry
     hartree contribution      =     295.35432708 Ry
     xc contribution           =     -70.14674885 Ry
     ewald contribution        =      85.30084385 Ry

     convergence has been achieved in  10 iterations

     Forces acting on atoms (cartesian axes, Ry/au):

     atom    1 type  1   force =     0.00575946    0.00459080    0.00524548
     atom    2 type  1   force =     0.00048013    0.00109137    0.00239633
     atom    3 type  1   force =     0.00010010   -0.00576901   -0.01958448
     atom    4 type  1   force =    -0.00503505    0.00484560    0.00528603
     atom    5 type  1   force =     0.00007245   -0.00919128   -0.00485677
     atom    6 type  1   force =    -0.00440960    0.00444808    0.01517909
     atom    7 type  1   force =     0.00027148   -0.00301313   -0.01308693
     atom    8 type  1   force =    -0.00076156    0.00112390    0.00244622
     atom    9 type  1   force =     0.00509568    0.00434135    0.01520240
     atom   10 type  1   force =    -0.00436171   -0.00465771    0.01509897
     atom   11 type  1   force =     0.00134360   -0.00056801    0.00248509
     atom   12 type  1   force =    -0.00021569    0.00336518   -0.01311369
     atom   13 type  1   force =     0.00372767   -0.00481330    0.01518474
     atom   14 type  1   force =    -0.00012100    0.00932745   -0.00478091
     atom   15 type  1   force =     0.00513999   -0.00497118    0.00534928
     atom   16 type  1   force =    -0.00021807    0.00509437   -0.01959957
     atom   17 type  1   force =    -0.00099794   -0.00050653    0.00254007
     atom   18 type  1   force =    -0.00592005   -0.00482107    0.00538104
     atom   19 type  2   force =     0.00005011    0.00008314   -0.01677239

     Total force =     0.055932     Total SCF correction =     0.000044
     Energy error            =      4.8E-03
     Gradient error          =      2.0E-02

     number of scf cycles    =   8
     number of bfgs steps    =   7

     energy   old            =    -236.2808440274 Ry
     energy   new            =    -236.2856587333 Ry

     CASE: energy  _new < energy  _old

     new trust radius        =       0.0567388826 bohr
     new conv_thr            =       0.0000000020 Ry


ATOMIC_POSITIONS (angstrom)
C            -0.0139615254       -0.0127578885       -0.0695532420
C            -1.2115552748        2.1126351805       -0.0777467790
C            -2.4633799697        4.2823114349       -0.1034821357
C             2.4771660529       -0.0128106155       -0.0693614478
C             1.2315498034        2.1175866680        0.2889166366
C            -0.0306741553        4.2600766171        0.0089772049
C             4.9261118689        0.0111274850       -0.0633573100
C             3.6750958598        2.1129142306       -0.0774945401
C             2.4928464332        4.2603189715        0.0091709317
C            -0.0297123487        1.4273075734        0.0079078792
C            -1.2123016416        3.5748178193       -0.0774882491
C            -2.4630096289        5.6769833869       -0.0633593600
C             2.4934136264        1.4274940769        0.0086571335
C             1.2310741552        3.5695587274        0.2895709590
C            -0.0144960751        5.7006185965       -0.0692754776
C             4.9263339021        1.4055099662       -0.1034210406
C             3.6744526103        3.5751966688       -0.0774491193
C             2.4773387894        5.7007883999       -0.0692035019
O             1.2302853579        2.8424072411        1.6179914579



     Writing output data file /tmp/Graphene3x3-O_PBE.save/
     NEW-OLD atomic charge density approx. for the potential

     negative rho (up, down):  9.416E-06 0.000E+00

     total cpu time spent up to now is       78.1 secs

     Self-consistent Calculation

     iteration #  1     ecut=    20.00 Ry     beta= 0.70
     Davidson diagonalization with overlap
     ethr =  1.00E-06,  avg # of iterations =  7.0

     negative rho (up, down):  7.520E-06 0.000E+00

     total cpu time spent up to now is       79.4 secs

     total energy              =    -236.28870509 Ry
     estimated scf accuracy    <       0.00253643 Ry

     iteration #  2     ecut=    20.00 Ry     beta= 0.70
     Davidson diagonalization with overlap
     ethr =  3.25E-06,  avg # of iterations =  2.0

     negative rho (up, down):  7.969E-06 0.000E+00

     total cpu time spent up to now is       80.2 secs

     total energy              =    -236.28911852 Ry
     estimated scf accuracy    <       0.00025337 Ry

     iteration #  3     ecut=    20.00 Ry     beta= 0.70
     Davidson diagonalization with overlap
     ethr =  3.25E-07,  avg # of iterations =  2.0

     negative rho (up, down):  8.853E-06 0.000E+00

     total cpu time spent up to now is       80.9 secs

     total energy              =    -236.28913382 Ry
     estimated scf accuracy    <       0.00026954 Ry

     iteration #  4     ecut=    20.00 Ry     beta= 0.70
     Davidson diagonalization with overlap
     ethr =  3.25E-07,  avg # of iterations =  2.0

     negative rho (up, down):  7.035E-06 0.000E+00

     total cpu time spent up to now is       81.7 secs

     total energy              =    -236.28919385 Ry
     estimated scf accuracy    <       0.00002722 Ry

     iteration #  5     ecut=    20.00 Ry     beta= 0.70
     Davidson diagonalization with overlap
     ethr =  3.49E-08,  avg # of iterations =  2.0

     negative rho (up, down):  6.964E-06 0.000E+00

     total cpu time spent up to now is       82.5 secs

     total energy              =    -236.28919772 Ry
     estimated scf accuracy    <       0.00000777 Ry

     iteration #  6     ecut=    20.00 Ry     beta= 0.70
     Davidson diagonalization with overlap
     ethr =  9.96E-09,  avg # of iterations =  2.0

     negative rho (up, down):  6.928E-06 0.000E+00

     total cpu time spent up to now is       83.4 secs

     total energy              =    -236.28919925 Ry
     estimated scf accuracy    <       0.00000027 Ry

     iteration #  7     ecut=    20.00 Ry     beta= 0.70
     Davidson diagonalization with overlap
     ethr =  3.40E-10,  avg # of iterations =  2.0

     negative rho (up, down):  6.920E-06 0.000E+00

     total cpu time spent up to now is       84.2 secs

     total energy              =    -236.28919932 Ry
     estimated scf accuracy    <       0.00000001 Ry

     iteration #  8     ecut=    20.00 Ry     beta= 0.70
     Davidson diagonalization with overlap
     ethr =  1.30E-11,  avg # of iterations =  3.0

     negative rho (up, down):  6.918E-06 0.000E+00

     total cpu time spent up to now is       85.0 secs

     total energy              =    -236.28919932 Ry
     estimated scf accuracy    <          2.5E-09 Ry

     iteration #  9     ecut=    20.00 Ry     beta= 0.70
     Davidson diagonalization with overlap
     ethr =  3.17E-12,  avg # of iterations =  2.0

     negative rho (up, down):  6.919E-06 0.000E+00

     total cpu time spent up to now is       85.9 secs

     End of self-consistent calculation

          k = 0.0000 0.0000 0.0000 (  1774 PWs)   bands (ev):

   -21.5540 -18.3284 -16.1770 -16.1750 -16.0702 -15.9446 -15.8741 -14.7483
   -11.8738 -11.7288 -11.5181 -11.5006  -9.7688  -9.5850  -9.0554  -9.0095
    -8.8274  -8.7173  -8.6695  -8.5929  -6.5095  -5.7694  -5.3995  -5.2010
    -5.0641  -5.0032  -4.7372  -4.7341  -3.8804  -3.7789  -3.7612  -3.5556
    -3.5446  -2.3812  -2.2746  -2.1374  -1.3238  -0.3080   0.7395   1.3685
     2.0326   3.6664   4.1718   5.6421   5.9085   6.0038   6.0685

     the Fermi energy is     0.8648 ev

!    total energy              =    -236.28919932 Ry
     estimated scf accuracy    <          5.2E-10 Ry
     smearing contrib. (-TS)   =       0.00163099 Ry
     internal energy E=F+TS    =    -236.29083030 Ry

     The total energy is F=E-TS. E is the sum of the following terms:
     one-electron contribution =    -545.57928380 Ry
     hartree contribution      =     294.73150283 Ry
     xc contribution           =     -70.13008764 Ry
     ewald contribution        =      84.68703830 Ry

     convergence has been achieved in   9 iterations

     Forces acting on atoms (cartesian axes, Ry/au):

     atom    1 type  1   force =    -0.00060480   -0.00036829    0.00807703
     atom    2 type  1   force =     0.00463145   -0.00070611    0.00378091
     atom    3 type  1   force =     0.00026967    0.00697106   -0.01448438
     atom    4 type  1   force =     0.00020615   -0.00067646    0.00812309
     atom    5 type  1   force =    -0.00034365    0.00327427    0.00241607
     atom    6 type  1   force =    -0.00764187    0.00155883    0.00440714
     atom    7 type  1   force =    -0.00032985    0.00647444   -0.01214117
     atom    8 type  1   force =    -0.00506507   -0.00084897    0.00383744
     atom    9 type  1   force =     0.00720636    0.00168747    0.00454418
     atom   10 type  1   force =    -0.00780678   -0.00127064    0.00442964
     atom   11 type  1   force =     0.00443143    0.00060946    0.00381307
     atom   12 type  1   force =     0.00023441   -0.00717547   -0.01223130
     atom   13 type  1   force =     0.00810132   -0.00113304    0.00437156
     atom   14 type  1   force =     0.00042934   -0.00318060    0.00245442
     atom   15 type  1   force =    -0.00015896    0.00056279    0.00818133
     atom   16 type  1   force =    -0.00023128   -0.00635459   -0.01454815
     atom   17 type  1   force =    -0.00397611    0.00034326    0.00386420
     atom   18 type  1   force =     0.00062350    0.00017025    0.00819058
     atom   19 type  2   force =     0.00002474    0.00006237   -0.01708566

     Total force =     0.044269     Total SCF correction =     0.000050
     Energy error            =      3.5E-03
     Gradient error          =      1.7E-02

     number of scf cycles    =   9
     number of bfgs steps    =   8

     energy   old            =    -236.2856587333 Ry
     energy   new            =    -236.2891993163 Ry

     CASE: energy  _new < energy  _old

     new trust radius        =       0.0652252701 bohr
     new conv_thr            =       0.0000000017 Ry


ATOMIC_POSITIONS (angstrom)
C            -0.0130451647       -0.0139691065       -0.0682899603
C            -1.2110278078        2.1133828590       -0.0805677561
C            -2.4630823616        4.2834267298       -0.1379410527
C             2.4761996395       -0.0142681668       -0.0680107691
C             1.2311525025        2.1168427408        0.3033193894
C            -0.0341133698        4.2633547497        0.0314212588
C             4.9259349994        0.0117535802       -0.0858867404
C             3.6740556921        2.1135868975       -0.0802136735
C             2.4960068437        4.2637767225        0.0318022675
C            -0.0332869511        1.4241645268        0.0301879461
C            -1.2116334391        3.5739759456       -0.0802154804
C            -2.4628647158        5.6759074644       -0.0859756281
C             2.4971379599        1.4245347666        0.0310123360
C             1.2315293794        3.5703781759        0.3041260606
C            -0.0134842457        5.7019791160       -0.0678399619
C             4.9260705710        1.4048163029       -0.1379287914
C             3.6743111790        3.5741646012       -0.0801090867
C             2.4764664128        5.7018306081       -0.0677362121
O             1.2302507162        2.8424460265        1.6188458542



     Writing output data file /tmp/Graphene3x3-O_PBE.save/
     NEW-OLD atomic charge density approx. for the potential

     negative rho (up, down):  7.201E-06 0.000E+00

     total cpu time spent up to now is       87.0 secs

     Self-consistent Calculation

     iteration #  1     ecut=    20.00 Ry     beta= 0.70
     Davidson diagonalization with overlap
     ethr =  1.00E-06,  avg # of iterations =  6.0

     negative rho (up, down):  5.807E-06 0.000E+00

     total cpu time spent up to now is       88.3 secs

     total energy              =    -236.29114308 Ry
     estimated scf accuracy    <       0.00240282 Ry

     iteration #  2     ecut=    20.00 Ry     beta= 0.70
     Davidson diagonalization with overlap
     ethr =  3.08E-06,  avg # of iterations =  2.0

     negative rho (up, down):  5.971E-06 0.000E+00

     total cpu time spent up to now is       89.4 secs

     total energy              =    -236.29153883 Ry
[...]
     atom   16 type  1   force =     0.00040736   -0.00118997    0.00016177
     atom   17 type  1   force =    -0.00051910    0.00058388   -0.00062845
     atom   18 type  1   force =     0.00073233    0.00017843   -0.00017242
     atom   19 type  2   force =    -0.00003336   -0.00009334   -0.00194000

     Total force =     0.004961     Total SCF correction =     0.000024
     Energy error            =      1.1E-04
     Gradient error          =      2.0E-03

     number of scf cycles    =  19
     number of bfgs steps    =  18

     energy   old            =    -236.2926564009 Ry
     energy   new            =    -236.2927635812 Ry

     CASE: energy  _new < energy  _old

     new trust radius        =       0.0124671373 bohr
     new conv_thr            =       0.0000000001 Ry


ATOMIC_POSITIONS (angstrom)
C            -0.0138431473       -0.0143948083       -0.0279254666
C            -1.2088726562        2.1119323928       -0.1151775978
C            -2.4631014514        4.2838373658       -0.1745465369
C             2.4767145026       -0.0146236074       -0.0275373882
C             1.2311921866        2.1168554154        0.3090232282
C            -0.0342800225        4.2617763778        0.0337572778
C             4.9259488542        0.0140200581       -0.0747150502
C             3.6715790691        2.1119369230       -0.1143191221
C             2.4969649023        4.2619208461        0.0349242085
C            -0.0334649839        1.4257657756        0.0311429043
C            -1.2085292063        3.5759695413       -0.1141922470
C            -2.4628887398        5.6741478411       -0.0762417784
C             2.4967690663        1.4258060321        0.0323041971
C             1.2314713071        3.5705535263        0.3107456279
C            -0.0141606803        5.7025224692       -0.0261299827
C             4.9260830042        1.4037544625       -0.1749932340
C             3.6717147742        3.5759997694       -0.1132127154
C             2.4772701797        5.7024386926       -0.0259402698
O             1.2300108812        2.8418654665        1.6230339453



     Writing output data file /tmp/Graphene3x3-O_PBE.save/
     NEW-OLD atomic charge density approx. for the potential

     negative rho (up, down):  4.636E-06 0.000E+00

     total cpu time spent up to now is      167.6 secs

     Self-consistent Calculation

     iteration #  1     ecut=    20.00 Ry     beta= 0.70
     Davidson diagonalization with overlap
     ethr =  1.00E-06,  avg # of iterations =  3.0

     negative rho (up, down):  4.610E-06 0.000E+00

     total cpu time spent up to now is      168.5 secs

     total energy              =    -236.29274293 Ry
     estimated scf accuracy    <       0.00018772 Ry

     iteration #  2     ecut=    20.00 Ry     beta= 0.70
     Davidson diagonalization with overlap
     ethr =  2.41E-07,  avg # of iterations =  3.0

     negative rho (up, down):  4.595E-06 0.000E+00

     total cpu time spent up to now is      169.3 secs

     total energy              =    -236.29278000 Ry
     estimated scf accuracy    <       0.00001531 Ry

     iteration #  3     ecut=    20.00 Ry     beta= 0.70
     Davidson diagonalization with overlap
     ethr =  1.96E-08,  avg # of iterations =  2.0

     negative rho (up, down):  4.630E-06 0.000E+00

     total cpu time spent up to now is      170.0 secs

     total energy              =    -236.29278159 Ry
     estimated scf accuracy    <       0.00000663 Ry

     iteration #  4     ecut=    20.00 Ry     beta= 0.70
     Davidson diagonalization with overlap
     ethr =  8.49E-09,  avg # of iterations =  2.0

     negative rho (up, down):  4.604E-06 0.000E+00

     total cpu time spent up to now is      170.8 secs

     total energy              =    -236.29278329 Ry
     estimated scf accuracy    <       0.00000248 Ry

     iteration #  5     ecut=    20.00 Ry     beta= 0.70
     Davidson diagonalization with overlap
     ethr =  3.18E-09,  avg # of iterations =  2.0

     negative rho (up, down):  4.603E-06 0.000E+00

     total cpu time spent up to now is      171.5 secs

     total energy              =    -236.29278366 Ry
     estimated scf accuracy    <       0.00000032 Ry

     iteration #  6     ecut=    20.00 Ry     beta= 0.70
     Davidson diagonalization with overlap
     ethr =  4.16E-10,  avg # of iterations =  2.0

     negative rho (up, down):  4.609E-06 0.000E+00

     total cpu time spent up to now is      172.2 secs

     total energy              =    -236.29278373 Ry
     estimated scf accuracy    <          4.9E-09 Ry

     iteration #  7     ecut=    20.00 Ry     beta= 0.70
     Davidson diagonalization with overlap
     ethr =  6.32E-12,  avg # of iterations =  3.0

     negative rho (up, down):  4.610E-06 0.000E+00

     total cpu time spent up to now is      173.0 secs

     total energy              =    -236.29278373 Ry
     estimated scf accuracy    <          1.8E-09 Ry

     iteration #  8     ecut=    20.00 Ry     beta= 0.70
     Davidson diagonalization with overlap
     ethr =  2.28E-12,  avg # of iterations =  2.0

     negative rho (up, down):  4.611E-06 0.000E+00

     total cpu time spent up to now is      173.8 secs

     total energy              =    -236.29278373 Ry
     estimated scf accuracy    <          5.1E-10 Ry

     iteration #  9     ecut=    20.00 Ry     beta= 0.70
     Davidson diagonalization with overlap
     ethr =  6.55E-13,  avg # of iterations =  2.0

     negative rho (up, down):  4.611E-06 0.000E+00

     total cpu time spent up to now is      174.5 secs

     End of self-consistent calculation

          k = 0.0000 0.0000 0.0000 (  1774 PWs)   bands (ev):

   -21.7426 -18.3264 -16.1803 -16.1703 -16.0571 -15.9284 -15.8487 -14.7144
   -11.8630 -11.7147 -11.5179 -11.4913  -9.7604  -9.5684  -9.0866  -9.0065
    -8.8154  -8.7101  -8.6722  -8.5895  -6.4879  -5.7730  -5.4335  -5.2847
    -5.0562  -5.0083  -4.7075  -4.6948  -3.8778  -3.8344  -3.7490  -3.5805
    -3.5265  -2.3924  -2.2361  -2.0611  -1.3442  -0.3782   0.7107   1.4126
     2.0650   3.7143   4.1499   5.5852   5.8431   6.0165   6.0453

     the Fermi energy is     0.8360 ev

!    total energy              =    -236.29278373 Ry
     estimated scf accuracy    <          3.7E-11 Ry
     smearing contrib. (-TS)   =       0.00163099 Ry
     internal energy E=F+TS    =    -236.29441472 Ry

     The total energy is F=E-TS. E is the sum of the following terms:
     one-electron contribution =    -544.64518368 Ry
     hartree contribution      =     294.24811575 Ry
     xc contribution           =     -70.12031229 Ry
     ewald contribution        =      84.22296550 Ry

     convergence has been achieved in   9 iterations

     Forces acting on atoms (cartesian axes, Ry/au):

     atom    1 type  1   force =     0.00010065   -0.00045819   -0.00017846
     atom    2 type  1   force =     0.00130280   -0.00026881    0.00020444
     atom    3 type  1   force =     0.00043592    0.00162377    0.00006790
     atom    4 type  1   force =     0.00053027   -0.00037176   -0.00021252
     atom    5 type  1   force =     0.00010256   -0.00089409    0.00015822
     atom    6 type  1   force =     0.00094035    0.00027221    0.00015081
     atom    7 type  1   force =     0.00028781   -0.00018391    0.00022788
     atom    8 type  1   force =    -0.00031740   -0.00019496    0.00006466
     atom    9 type  1   force =    -0.00025597   -0.00006296   -0.00001173
     atom   10 type  1   force =    -0.00096444    0.00093740   -0.00012057
     atom   11 type  1   force =    -0.00106761   -0.00068891   -0.00005228
     atom   12 type  1   force =    -0.00031475   -0.00088507    0.00018049
     atom   13 type  1   force =     0.00042751    0.00072881   -0.00000409
     atom   14 type  1   force =    -0.00015780    0.00068725    0.00020461
     atom   15 type  1   force =    -0.00053441    0.00023976   -0.00026368
     atom   16 type  1   force =    -0.00041483   -0.00032931    0.00008650
     atom   17 type  1   force =    -0.00004650   -0.00043135   -0.00001588
     atom   18 type  1   force =    -0.00002036    0.00032944   -0.00022542
     atom   19 type  2   force =    -0.00003380   -0.00004933   -0.00026087

     Total force =     0.003780     Total SCF correction =     0.000015
     Energy error            =      2.0E-05
     Gradient error          =      1.6E-03

     number of scf cycles    =  20
     number of bfgs steps    =  19

     energy   old            =    -236.2927635812 Ry
     energy   new            =    -236.2927837306 Ry

     CASE: energy  _new < energy  _old

     new trust radius        =       0.0016380495 bohr
     new conv_thr            =            1.0E-10 Ry


ATOMIC_POSITIONS (angstrom)
C            -0.0137920051       -0.0145062024       -0.0287187296
C            -1.2085946996        2.1119584743       -0.1143627210
C            -2.4629620039        4.2843198768       -0.1739419219
C             2.4768554232       -0.0147173971       -0.0283468427
C             1.2312121926        2.1164607273        0.3089769589
C            -0.0340211944        4.2618949667        0.0337671739
C             4.9260291605        0.0139591836       -0.0749779097
C             3.6715926081        2.1119721940       -0.1135605201
C             2.4968839561        4.2619515017        0.0348626226
C            -0.0336772656        1.4259630263        0.0310962778
C            -1.2088965271        3.5756967428       -0.1134629508
C            -2.4629785931        5.6739645913       -0.0764852097
C             2.4968650205        1.4259665693        0.0322872331
C             1.2314270758        3.5708764127        0.3107066002
C            -0.0142903177        5.7025630509       -0.0269860910
C             4.9259522637        1.4035993452       -0.1743634539
C             3.6717275464        3.5758162976       -0.1125000734
C             2.4772438856        5.7024957111       -0.0267815406
O             1.2300013140        2.8418494679        1.6227910981



     Writing output data file /tmp/Graphene3x3-O_PBE.save/
     NEW-OLD atomic charge density approx. for the potential

     negative rho (up, down):  4.591E-06 0.000E+00

     total cpu time spent up to now is      175.4 secs

     Self-consistent Calculation

     iteration #  1     ecut=    20.00 Ry     beta= 0.70
     Davidson diagonalization with overlap
     ethr =  1.00E-06,  avg # of iterations =  2.0

     Threshold (ethr) on eigenvalues was too large:
     Diagonalizing with lowered threshold

     Davidson diagonalization with overlap
     ethr =  4.90E-09,  avg # of iterations =  3.0

     negative rho (up, down):  4.603E-06 0.000E+00

     total cpu time spent up to now is      176.7 secs

     total energy              =    -236.29278671 Ry
     estimated scf accuracy    <       0.00000444 Ry

     iteration #  2     ecut=    20.00 Ry     beta= 0.70
     Davidson diagonalization with overlap
     ethr =  5.70E-09,  avg # of iterations =  2.0

     negative rho (up, down):  4.611E-06 0.000E+00

     total cpu time spent up to now is      177.4 secs

     total energy              =    -236.29278746 Ry
     estimated scf accuracy    <       0.00000082 Ry

     iteration #  3     ecut=    20.00 Ry     beta= 0.70
     Davidson diagonalization with overlap
     ethr =  1.05E-09,  avg # of iterations =  2.0

     negative rho (up, down):  4.617E-06 0.000E+00

     total cpu time spent up to now is      178.2 secs

     total energy              =    -236.29278761 Ry
     estimated scf accuracy    <       0.00000053 Ry

     iteration #  4     ecut=    20.00 Ry     beta= 0.70
     Davidson diagonalization with overlap
     ethr =  6.79E-10,  avg # of iterations =  2.0

     negative rho (up, down):  4.611E-06 0.000E+00

     total cpu time spent up to now is      179.0 secs

     total energy              =    -236.29278772 Ry
     estimated scf accuracy    <       0.00000005 Ry

     iteration #  5     ecut=    20.00 Ry     beta= 0.70
     Davidson diagonalization with overlap
     ethr =  6.58E-11,  avg # of iterations =  2.0

     negative rho (up, down):  4.608E-06 0.000E+00

     total cpu time spent up to now is      179.7 secs

     total energy              =    -236.29278773 Ry
     estimated scf accuracy    <       0.00000001 Ry

     iteration #  6     ecut=    20.00 Ry     beta= 0.70
     Davidson diagonalization with overlap
     ethr =  1.57E-11,  avg # of iterations =  2.0

     negative rho (up, down):  4.607E-06 0.000E+00

     total cpu time spent up to now is      180.4 secs

     total energy              =    -236.29278773 Ry
     estimated scf accuracy    <          1.3E-09 Ry

     iteration #  7     ecut=    20.00 Ry     beta= 0.70
     Davidson diagonalization with overlap
     ethr =  1.63E-12,  avg # of iterations =  2.0

     negative rho (up, down):  4.608E-06 0.000E+00

     total cpu time spent up to now is      181.2 secs

     total energy              =    -236.29278773 Ry
     estimated scf accuracy    <          2.9E-10 Ry

     iteration #  8     ecut=    20.00 Ry     beta= 0.70
     Davidson diagonalization with overlap
     ethr =  3.78E-13,  avg # of iterations =  2.0

     negative rho (up, down):  4.607E-06 0.000E+00

     total cpu time spent up to now is      181.9 secs

     End of self-consistent calculation

          k = 0.0000 0.0000 0.0000 (  1774 PWs)   bands (ev):

   -21.7418 -18.3266 -16.1803 -16.1711 -16.0575 -15.9286 -15.8484 -14.7147
   -11.8634 -11.7147 -11.5174 -11.4915  -9.7608  -9.5681  -9.0868  -9.0057
    -8.8159  -8.7101  -8.6717  -8.5900  -6.4881  -5.7725  -5.4323  -5.2860
    -5.0561  -5.0090  -4.7076  -4.6951  -3.8768  -3.8335  -3.7499  -3.5809
    -3.5264  -2.3921  -2.2365  -2.0628  -1.3444  -0.3765   0.7111   1.4128
     2.0660   3.7140   4.1501   5.5848   5.8442   6.0174   6.0458

     the Fermi energy is     0.8364 ev

!    total energy              =    -236.29278773 Ry
     estimated scf accuracy    <          1.2E-11 Ry
     smearing contrib. (-TS)   =       0.00163099 Ry
     internal energy E=F+TS    =    -236.29441872 Ry

     The total energy is F=E-TS. E is the sum of the following terms:
     one-electron contribution =    -544.67565044 Ry
     hartree contribution      =     294.26362831 Ry
     xc contribution           =     -70.12083431 Ry
     ewald contribution        =      84.23843771 Ry

     convergence has been achieved in   8 iterations

     Forces acting on atoms (cartesian axes, Ry/au):

     atom    1 type  1   force =    -0.00025792    0.00003006   -0.00006258
     atom    2 type  1   force =    -0.00026782   -0.00023335    0.00002429
     atom    3 type  1   force =    -0.00019022   -0.00017358   -0.00002582
     atom    4 type  1   force =     0.00000818    0.00003568   -0.00007692
     atom    5 type  1   force =    -0.00003060    0.00030724    0.00024899
     atom    6 type  1   force =    -0.00041653   -0.00020676   -0.00005386
     atom    7 type  1   force =    -0.00011834   -0.00003702    0.00007224
     atom    8 type  1   force =    -0.00004130   -0.00015690    0.00002507
     atom    9 type  1   force =     0.00005345   -0.00007622   -0.00005713
     atom   10 type  1   force =     0.00006834   -0.00009284   -0.00005314
     atom   11 type  1   force =     0.00031054    0.00039734    0.00008266
     atom   12 type  1   force =     0.00018163    0.00022900    0.00010830
     atom   13 type  1   force =     0.00016155   -0.00001581   -0.00005624
     atom   14 type  1   force =     0.00005058   -0.00028765    0.00031303
     atom   15 type  1   force =     0.00003036    0.00001111   -0.00011174
     atom   16 type  1   force =     0.00016989   -0.00001228    0.00005147
     atom   17 type  1   force =     0.00008195    0.00033961   -0.00003537
     atom   18 type  1   force =     0.00023484    0.00001579   -0.00009011
     atom   19 type  2   force =    -0.00002858   -0.00007341   -0.00030313

     Total force =     0.001275     Total SCF correction =     0.000006
     Energy error            =      4.0E-06
     Gradient error          =      4.2E-04

     bfgs converged in  21 scf cycles and  20 bfgs steps
     (criteria: energy <  1.0E-04 Ry, force <  1.0E-03 Ry/Bohr)

     End of BFGS Geometry Optimization

     Final energy   =    -236.2927877312 Ry

     File /tmp/Graphene3x3-O_PBE.bfgs deleted, as requested
Begin final coordinates

ATOMIC_POSITIONS (angstrom)
C            -0.0137920051       -0.0145062024       -0.0287187296
C            -1.2085946996        2.1119584743       -0.1143627210
C            -2.4629620039        4.2843198768       -0.1739419219
C             2.4768554232       -0.0147173971       -0.0283468427
C             1.2312121926        2.1164607273        0.3089769589
C            -0.0340211944        4.2618949667        0.0337671739
C             4.9260291605        0.0139591836       -0.0749779097
C             3.6715926081        2.1119721940       -0.1135605201
C             2.4968839561        4.2619515017        0.0348626226
C            -0.0336772656        1.4259630263        0.0310962778
C            -1.2088965271        3.5756967428       -0.1134629508
C            -2.4629785931        5.6739645913       -0.0764852097
C             2.4968650205        1.4259665693        0.0322872331
C             1.2314270758        3.5708764127        0.3107066002
C            -0.0142903177        5.7025630509       -0.0269860910
C             4.9259522637        1.4035993452       -0.1743634539
C             3.6717275464        3.5758162976       -0.1125000734
C             2.4772438856        5.7024957111       -0.0267815406
O             1.2300013140        2.8418494679        1.6227910981
End final coordinates



     Writing output data file /tmp/Graphene3x3-O_PBE.save/

     init_run     :      0.71s CPU      0.74s WALL (       1 calls)
     electrons    :    162.09s CPU    162.66s WALL (      21 calls)
     update_pot   :      3.09s CPU      3.11s WALL (      20 calls)
     forces       :     12.69s CPU     12.77s WALL (      21 calls)

     Called by init_run:
     wfcinit      :      0.22s CPU      0.23s WALL (       1 calls)
     potinit      :      0.14s CPU      0.15s WALL (       1 calls)
     hinit0       :      0.20s CPU      0.20s WALL (       1 calls)

     Called by electrons:
     c_bands      :     83.06s CPU     83.33s WALL (     197 calls)
     sum_band     :     32.48s CPU     32.55s WALL (     197 calls)
     v_of_rho     :     20.37s CPU     20.44s WALL (     212 calls)
     newd         :     28.07s CPU     28.10s WALL (     212 calls)
     mix_rho      :      1.38s CPU      1.39s WALL (     197 calls)

     Called by c_bands:
     init_us_2    :      0.39s CPU      0.40s WALL (     395 calls)
     regterg      :     81.83s CPU     82.09s WALL (     197 calls)

     Called by *egterg:
     rdiaghg      :      1.42s CPU      1.45s WALL (     674 calls)
     h_psi        :     44.74s CPU     44.90s WALL (     701 calls)
     s_psi        :      8.92s CPU      8.93s WALL (     701 calls)
     g_psi        :      0.15s CPU      0.15s WALL (     503 calls)

     Called by h_psi:
     h_psi:calbec :     16.02s CPU     16.04s WALL (     701 calls)
     vloc_psi     :     19.62s CPU     19.76s WALL (     701 calls)
     add_vuspsi   :      9.02s CPU      9.03s WALL (     701 calls)

     General routines
     calbec       :     24.70s CPU     24.74s WALL (     982 calls)
     fft          :      5.18s CPU      5.20s WALL (    2358 calls)
     ffts         :      0.55s CPU      0.55s WALL (     409 calls)
     fftw         :     18.92s CPU     19.04s WALL (   29504 calls)
     interpolate  :      1.01s CPU      1.01s WALL (     212 calls)

     Parallel routines

     PWSCF        :   3m 1.77s CPU   3m 2.52s WALL


   This run was terminated on:  14:31:40  26Apr2021            

=------------------------------------------------------------------------------=
   JOB DONE.
=------------------------------------------------------------------------------=
