
     Program PWSCF v.6.7MaX starts on 26Apr2021 at 14:26:51 

     This program is part of the open-source Quantum ESPRESSO suite
     for quantum simulation of materials; please cite
         "P. Giannozzi et al., J. Phys.:Condens. Matter 21 395502 (2009);
         "P. Giannozzi et al., J. Phys.:Condens. Matter 29 465901 (2017);
          URL http://www.quantum-espresso.org", 
     in publications or presentations arising from this work. More details at
     http://www.quantum-espresso.org/quote

     Parallel version (MPI), running on     1 processors

     MPI processes distributed on     1 nodes
     Reading input from pw.graphane.relax.in

     Current dimensions of program PWSCF are:
     Max number of different atomic species (ntypx) = 10
     Max number of k-points (npk) =  40000
     Max angular momentum in pseudopotentials (lmaxx) =  3
     file C.pbe-rrkjus.UPF: wavefunction(s)  2S 2P renormalized
     file H.pbe-rrkjus.UPF: wavefunction(s)  1S renormalized

     Subspace diagonalization in iterative solution of the eigenvalue problem:
     a serial algorithm will be used


     G-vector sticks info
     --------------------
     sticks:   dense  smooth     PW     G-vecs:    dense   smooth      PW
     Sum         301     121     37                12531     3147     647



     bravais-lattice index     =            4
     lattice parameter (alat)  =       4.6540  a.u.
     unit-cell volume          =     261.8973 (a.u.)^3
     number of atoms/cell      =            4
     number of atomic types    =            2
     number of electrons       =        10.00
     number of Kohn-Sham states=            5
     kinetic-energy cutoff     =      20.0000  Ry
     charge density cutoff     =     200.0000  Ry
     scf convergence threshold =      1.0E-08
     mixing beta               =       0.7000
     number of iterations used =            8  plain     mixing
     energy convergence thresh.=      1.0E-04
     force convergence thresh. =      1.0E-03
     Exchange-correlation=  SLA  PW   PBE  PBE
                           (   1   4   3   4   0   0   0)
     nstep                     =           50


     celldm(1)=   4.654000  celldm(2)=   0.000000  celldm(3)=   3.000000
     celldm(4)=   0.000000  celldm(5)=   0.000000  celldm(6)=   0.000000

     crystal axes: (cart. coord. in units of alat)
               a(1) = (   1.000000   0.000000   0.000000 )  
               a(2) = (  -0.500000   0.866025   0.000000 )  
               a(3) = (   0.000000   0.000000   3.000000 )  

     reciprocal axes: (cart. coord. in units 2 pi/alat)
               b(1) = (  1.000000  0.577350 -0.000000 )  
               b(2) = (  0.000000  1.154701  0.000000 )  
               b(3) = (  0.000000 -0.000000  0.333333 )  


     PseudoPot. # 1 for C  read from file:
     /home/user/QE-2021/pseudo/C.pbe-rrkjus.UPF
     MD5 check sum: 00fb224312de0c5b6853bd333518df6f
     Pseudo is Ultrasoft, Zval =  4.0
     Generated by new atomic code, or converted to UPF format
     Using radial grid of  627 points,  4 beta functions with: 
                l(1) =   0
                l(2) =   0
                l(3) =   1
                l(4) =   1
     Q(r) pseudized with 0 coefficients 


     PseudoPot. # 2 for H  read from file:
     /home/user/QE-2021/pseudo/H.pbe-rrkjus.UPF
     MD5 check sum: 7cc9d459525c9a0585f487a71c3c9563
     Pseudo is Ultrasoft, Zval =  1.0
     Generated by new atomic code, or converted to UPF format
     Using radial grid of 1061 points,  2 beta functions with: 
                l(1) =   0
                l(2) =   0
     Q(r) pseudized with 0 coefficients 


     atomic species   valence    mass     pseudopotential
        C              4.00    12.01070     C ( 1.00)
        H              1.00     1.00007     H ( 1.00)

     12 Sym. Ops., with inversion, found ( 6 have fractional translation)



   Cartesian axes

     site n.     atom                  positions (alat units)
         1           H   tau(   1) = (   0.0000000   0.0000000   0.4000000  )
         2           C   tau(   2) = (   0.0000000   0.0000000   0.0000000  )
         3           C   tau(   3) = (   0.0000000   0.5773503   0.0000000  )
         4           H   tau(   4) = (   0.0000000   0.5773503  -0.4000000  )

     number of k points=    12
                       cart. coord. in units 2pi/alat
        k(    1) = (   0.0000000   0.0000000   0.0000000), wk =   0.0246914
        k(    2) = (   0.0000000   0.1283001   0.0000000), wk =   0.1481481
        k(    3) = (   0.0000000   0.2566001   0.0000000), wk =   0.1481481
        k(    4) = (   0.0000000   0.3849002   0.0000000), wk =   0.1481481
        k(    5) = (   0.0000000   0.5132002   0.0000000), wk =   0.1481481
        k(    6) = (   0.1111111   0.1924501   0.0000000), wk =   0.1481481
        k(    7) = (   0.1111111   0.3207501   0.0000000), wk =   0.2962963
        k(    8) = (   0.1111111   0.4490502   0.0000000), wk =   0.2962963
        k(    9) = (   0.1111111   0.5773503   0.0000000), wk =   0.1481481
        k(   10) = (   0.2222222   0.3849002   0.0000000), wk =   0.1481481
        k(   11) = (   0.2222222   0.5132002   0.0000000), wk =   0.2962963
        k(   12) = (   0.3333333   0.5773503   0.0000000), wk =   0.0493827

     Dense  grid:    12531 G-vectors     FFT dimensions: (  24,  24,  64)

     Smooth grid:     3147 G-vectors     FFT dimensions: (  15,  15,  40)

     Estimated max dynamical RAM per process >      18.30 MB

     Initial potential from superposition of free atoms

     starting charge    9.80749, renormalised to   10.00000
     Starting wfcs are   10 randomized atomic wfcs

     total cpu time spent up to now is        1.3 secs

     Self-consistent Calculation

     iteration #  1     ecut=    20.00 Ry     beta= 0.70
     Davidson diagonalization with overlap
     ethr =  1.00E-02,  avg # of iterations =  2.2

     total cpu time spent up to now is        1.4 secs

     total energy              =     -24.62100055 Ry
     estimated scf accuracy    <       0.86240530 Ry

     iteration #  2     ecut=    20.00 Ry     beta= 0.70
     Davidson diagonalization with overlap
     ethr =  8.62E-03,  avg # of iterations =  2.5

     total cpu time spent up to now is        1.5 secs

     total energy              =     -24.76076677 Ry
     estimated scf accuracy    <       0.08782140 Ry

     iteration #  3     ecut=    20.00 Ry     beta= 0.70
     Davidson diagonalization with overlap
     ethr =  8.78E-04,  avg # of iterations =  2.4

     total cpu time spent up to now is        1.6 secs

     total energy              =     -24.77986165 Ry
     estimated scf accuracy    <       0.00479982 Ry

     iteration #  4     ecut=    20.00 Ry     beta= 0.70
     Davidson diagonalization with overlap
     ethr =  4.80E-05,  avg # of iterations =  2.5

     total cpu time spent up to now is        1.6 secs

     total energy              =     -24.78066321 Ry
     estimated scf accuracy    <       0.00009741 Ry

     iteration #  5     ecut=    20.00 Ry     beta= 0.70
     Davidson diagonalization with overlap
     ethr =  9.74E-07,  avg # of iterations =  2.5

     total cpu time spent up to now is        1.7 secs

     total energy              =     -24.78069619 Ry
     estimated scf accuracy    <       0.00000831 Ry

     iteration #  6     ecut=    20.00 Ry     beta= 0.70
     Davidson diagonalization with overlap
     ethr =  8.31E-08,  avg # of iterations =  2.1

     total cpu time spent up to now is        1.7 secs

     total energy              =     -24.78069763 Ry
     estimated scf accuracy    <       0.00000041 Ry

     iteration #  7     ecut=    20.00 Ry     beta= 0.70
     Davidson diagonalization with overlap
     ethr =  4.10E-09,  avg # of iterations =  2.5

     total cpu time spent up to now is        1.8 secs

     total energy              =     -24.78069776 Ry
     estimated scf accuracy    <       0.00000012 Ry

     iteration #  8     ecut=    20.00 Ry     beta= 0.70
     Davidson diagonalization with overlap
     ethr =  1.18E-09,  avg # of iterations =  2.0

     total cpu time spent up to now is        1.9 secs

     End of self-consistent calculation

          k = 0.0000 0.0000 0.0000 (   397 PWs)   bands (ev):

   -19.8815 -10.9987  -1.9721  -1.9721   1.3622

          k = 0.0000 0.1283 0.0000 (   399 PWs)   bands (ev):

   -19.5862 -10.7358  -3.1848  -2.5521   1.5187

          k = 0.0000 0.2566 0.0000 (   394 PWs)   bands (ev):

   -18.7031 -10.0710  -5.6879  -3.7221   1.5730

          k = 0.0000 0.3849 0.0000 (   398 PWs)   bands (ev):

   -17.2717 -10.3297  -7.1009  -4.7600   0.4018

          k = 0.0000 0.5132 0.0000 (   396 PWs)   bands (ev):

   -15.4381 -12.5073  -6.2174  -5.3266  -1.2700

          k = 0.1111 0.1925 0.0000 (   409 PWs)   bands (ev):

   -18.9984 -10.2598  -4.7422  -3.7794   1.6650

          k = 0.1111 0.3208 0.0000 (   398 PWs)   bands (ev):

   -17.8377  -9.8194  -6.6368  -5.1760   1.0920

          k = 0.1111 0.4491 0.0000 (   389 PWs)   bands (ev):

   -16.1718 -11.2642  -6.8335  -5.7124  -0.5849

          k = 0.1111 0.5774 0.0000 (   386 PWs)   bands (ev):

   -14.6489 -13.0284  -6.8034  -5.2158  -1.7461

          k = 0.2222 0.3849 0.0000 (   395 PWs)   bands (ev):

   -16.4358 -10.4438  -7.3249  -6.1900  -0.2188

          k = 0.2222 0.5132 0.0000 (   394 PWs)   bands (ev):

   -14.6562 -12.1234  -8.4737  -4.8992  -1.8892

          k = 0.3333 0.5774 0.0000 (   381 PWs)   bands (ev):

   -13.1023 -13.1023  -9.5782  -3.3866  -3.3865

     highest occupied level (ev):     1.6650

!    total energy              =     -24.78069777 Ry
     estimated scf accuracy    <          2.9E-09 Ry

     The total energy is the sum of the following terms:
     one-electron contribution =     -73.90374163 Ry
     hartree contribution      =      39.86825425 Ry
     xc contribution           =      -8.92393230 Ry
     ewald contribution        =      18.17872191 Ry

     convergence has been achieved in   8 iterations

     Forces acting on atoms (cartesian axes, Ry/au):

     atom    1 type  2   force =     0.00000000   -0.00000000    0.29668627
     atom    2 type  1   force =     0.00000000   -0.00000000    0.24378462
     atom    3 type  1   force =     0.00000000    0.00000000   -0.24378462
     atom    4 type  2   force =     0.00000000    0.00000000   -0.29668627

     Total force =     0.543054     Total SCF correction =     0.000031

     BFGS Geometry Optimization
     Energy error            =      0.0E+00
     Gradient error          =      3.0E-01

     number of scf cycles    =   1
     number of bfgs steps    =   0

     energy   new            =     -24.7806977734 Ry

     new trust radius        =       0.2966862734 bohr
     new conv_thr            =       0.0000000100 Ry


ATOMIC_POSITIONS (alat)
H             0.0000000000       -0.0000000000        0.4637486621
C             0.0000000000       -0.0000000000        0.0523817412
C             0.0000000000        0.5773503000       -0.0523817412
H             0.0000000000        0.5773503000       -0.4637486621



     Writing output data file /tmp/Graphane.save/
     NEW-OLD atomic charge density approx. for the potential

     total cpu time spent up to now is        2.0 secs

     Self-consistent Calculation

     iteration #  1     ecut=    20.00 Ry     beta= 0.70
     Davidson diagonalization with overlap
     ethr =  1.00E-06,  avg # of iterations =  8.2

     total cpu time spent up to now is        2.1 secs

     total energy              =     -25.00116094 Ry
     estimated scf accuracy    <       0.06342026 Ry

     iteration #  2     ecut=    20.00 Ry     beta= 0.70
     Davidson diagonalization with overlap
     ethr =  6.34E-04,  avg # of iterations =  2.2

     total cpu time spent up to now is        2.1 secs

     total energy              =     -25.01693577 Ry
     estimated scf accuracy    <       0.01334019 Ry

     iteration #  3     ecut=    20.00 Ry     beta= 0.70
     Davidson diagonalization with overlap
     ethr =  1.33E-04,  avg # of iterations =  2.1

     total cpu time spent up to now is        2.2 secs

     total energy              =     -25.01948627 Ry
     estimated scf accuracy    <       0.00018084 Ry

     iteration #  4     ecut=    20.00 Ry     beta= 0.70
     Davidson diagonalization with overlap
     ethr =  1.81E-06,  avg # of iterations =  2.6

     total cpu time spent up to now is        2.2 secs

     total energy              =     -25.01950867 Ry
     estimated scf accuracy    <       0.00003881 Ry

     iteration #  5     ecut=    20.00 Ry     beta= 0.70
     Davidson diagonalization with overlap
     ethr =  3.88E-07,  avg # of iterations =  2.2

     total cpu time spent up to now is        2.3 secs

     total energy              =     -25.01951656 Ry
     estimated scf accuracy    <       0.00000008 Ry

     iteration #  6     ecut=    20.00 Ry     beta= 0.70
     Davidson diagonalization with overlap
     ethr =  7.86E-10,  avg # of iterations =  3.8

     total cpu time spent up to now is        2.4 secs

     total energy              =     -25.01951666 Ry
     estimated scf accuracy    <       0.00000005 Ry

     iteration #  7     ecut=    20.00 Ry     beta= 0.70
     Davidson diagonalization with overlap
     ethr =  5.20E-10,  avg # of iterations =  2.0

     total cpu time spent up to now is        2.4 secs

     End of self-consistent calculation

          k = 0.0000 0.0000 0.0000 (   397 PWs)   bands (ev):

   -18.4296 -10.1165  -0.6825  -0.4601  -0.4601

          k = 0.0000 0.1283 0.0000 (   399 PWs)   bands (ev):

   -18.1285  -9.8382  -1.7583  -1.0498  -0.5695

          k = 0.0000 0.2566 0.0000 (   394 PWs)   bands (ev):

   -17.2305  -9.0558  -4.4843  -2.2251  -0.4494

          k = 0.0000 0.3849 0.0000 (   398 PWs)   bands (ev):

   -15.7707  -8.7147  -6.6240  -3.2627  -0.9074

          k = 0.0000 0.5132 0.0000 (   396 PWs)   bands (ev):

   -13.8844 -10.9162  -5.8573  -3.8282  -1.9247

          k = 0.1111 0.1925 0.0000 (   409 PWs)   bands (ev):

   -17.5305  -9.3054  -3.4371  -2.3314  -0.4105

          k = 0.1111 0.3208 0.0000 (   398 PWs)   bands (ev):

   -16.3484  -8.5054  -5.7811  -3.7555  -0.5545

          k = 0.1111 0.4491 0.0000 (   389 PWs)   bands (ev):

   -14.6448  -9.6038  -6.2163  -4.5459  -1.4392

          k = 0.1111 0.5774 0.0000 (   386 PWs)   bands (ev):

   -13.0553 -11.4747  -5.7085  -4.5522  -2.2579

          k = 0.2222 0.3849 0.0000 (   395 PWs)   bands (ev):

   -14.9170  -8.7419  -5.9062  -5.8893  -1.1953

          k = 0.2222 0.5132 0.0000 (   394 PWs)   bands (ev):

   -13.0826 -10.4811  -7.0541  -4.7513  -2.3288

          k = 0.3333 0.5774 0.0000 (   381 PWs)   bands (ev):

   -11.4676 -11.4676  -8.2083  -3.4931  -3.4931

     highest occupied level (ev):    -0.4105

!    total energy              =     -25.01951667 Ry
     estimated scf accuracy    <          2.4E-09 Ry

     The total energy is the sum of the following terms:
     one-electron contribution =     -69.21482975 Ry
     hartree contribution      =      37.75274795 Ry
     xc contribution           =      -8.84547814 Ry
     ewald contribution        =      15.28804327 Ry

     convergence has been achieved in   7 iterations

     Forces acting on atoms (cartesian axes, Ry/au):

     atom    1 type  2   force =     0.00000000   -0.00000000    0.18195088
     atom    2 type  1   force =     0.00000000    0.00000000    0.12309816
     atom    3 type  1   force =     0.00000000    0.00000000   -0.12309816
     atom    4 type  2   force =     0.00000000   -0.00000000   -0.18195088

     Total force =     0.310674     Total SCF correction =     0.000030
     Energy error            =      2.4E-01
     Gradient error          =      1.8E-01

     number of scf cycles    =   2
     number of bfgs steps    =   1

     energy   old            =     -24.7806977734 Ry
     energy   new            =     -25.0195166677 Ry

     CASE: energy  _new < energy  _old

     new trust radius        =       0.3263549008 bohr
     new conv_thr            =       0.0000000100 Ry


ATOMIC_POSITIONS (alat)
H             0.0000000000       -0.0000000000        0.5338721904
C             0.0000000000        0.0000000000        0.0999312695
C             0.0000000000        0.5773503000       -0.0999312695
H             0.0000000000        0.5773503000       -0.5338721904



     Writing output data file /tmp/Graphane.save/
     NEW-OLD atomic charge density approx. for the potential

     total cpu time spent up to now is        2.5 secs

     Self-consistent Calculation

     iteration #  1     ecut=    20.00 Ry     beta= 0.70
     Davidson diagonalization with overlap
     ethr =  1.00E-06,  avg # of iterations =  8.6

     total cpu time spent up to now is        2.6 secs

     total energy              =     -25.07513381 Ry
     estimated scf accuracy    <       0.09918534 Ry

     iteration #  2     ecut=    20.00 Ry     beta= 0.70
     Davidson diagonalization with overlap
     ethr =  9.92E-04,  avg # of iterations =  2.0

     total cpu time spent up to now is        2.7 secs

     total energy              =     -25.10416100 Ry
     estimated scf accuracy    <       0.02807822 Ry

     iteration #  3     ecut=    20.00 Ry     beta= 0.70
     Davidson diagonalization with overlap
     ethr =  2.81E-04,  avg # of iterations =  2.0

     total cpu time spent up to now is        2.7 secs

     total energy              =     -25.10907649 Ry
     estimated scf accuracy    <       0.00022491 Ry

     iteration #  4     ecut=    20.00 Ry     beta= 0.70
     Davidson diagonalization with overlap
     ethr =  2.25E-06,  avg # of iterations =  2.4

     total cpu time spent up to now is        2.8 secs

     total energy              =     -25.10913766 Ry
     estimated scf accuracy    <       0.00008729 Ry

     iteration #  5     ecut=    20.00 Ry     beta= 0.70
     Davidson diagonalization with overlap
     ethr =  8.73E-07,  avg # of iterations =  2.0

     total cpu time spent up to now is        2.9 secs

     total energy              =     -25.10915817 Ry
     estimated scf accuracy    <       0.00000117 Ry

     iteration #  6     ecut=    20.00 Ry     beta= 0.70
     Davidson diagonalization with overlap
     ethr =  1.17E-08,  avg # of iterations =  2.2

     total cpu time spent up to now is        2.9 secs

     total energy              =     -25.10915834 Ry
     estimated scf accuracy    <       0.00000006 Ry

     iteration #  7     ecut=    20.00 Ry     beta= 0.70
     Davidson diagonalization with overlap
     ethr =  6.39E-10,  avg # of iterations =  2.2

     total cpu time spent up to now is        3.0 secs

     End of self-consistent calculation

          k = 0.0000 0.0000 0.0000 (   397 PWs)   bands (ev):

   -17.1154  -9.4069  -2.4138   1.4002   1.4002

          k = 0.0000 0.1283 0.0000 (   399 PWs)   bands (ev):

   -16.8066  -9.1207  -2.2770   0.0123   0.7996

          k = 0.0000 0.2566 0.0000 (   394 PWs)   bands (ev):

   -15.8882  -8.3161  -2.9558  -1.8884  -0.3757

          k = 0.0000 0.3849 0.0000 (   398 PWs)   bands (ev):

   -14.3920  -7.4943  -5.7079  -1.8843  -1.4050

          k = 0.0000 0.5132 0.0000 (   396 PWs)   bands (ev):

   -12.4606  -9.3947  -5.3819  -2.4089  -1.9664

          k = 0.1111 0.1925 0.0000 (   409 PWs)   bands (ev):

   -16.1947  -8.5783  -2.0892  -1.7998  -0.4087

          k = 0.1111 0.3208 0.0000 (   398 PWs)   bands (ev):

   -14.9848  -7.6415  -4.4271  -2.2305  -1.5073

          k = 0.1111 0.4491 0.0000 (   389 PWs)   bands (ev):

   -13.2389  -8.0805  -5.6361  -2.9094  -2.0045

          k = 0.1111 0.5774 0.0000 (   386 PWs)   bands (ev):

   -11.6099  -9.9653  -5.0312  -3.0361  -2.6047

          k = 0.2222 0.3849 0.0000 (   395 PWs)   bands (ev):

   -13.5166  -7.3353  -5.2278  -4.2479  -1.8719

          k = 0.2222 0.5132 0.0000 (   394 PWs)   bands (ev):

   -11.6332  -8.9514  -5.4759  -4.3339  -2.5707

          k = 0.3333 0.5774 0.0000 (   381 PWs)   bands (ev):

    -9.9700  -9.9700  -6.5846  -3.4047  -3.4047

     highest occupied level (ev):     1.4002

!    total energy              =     -25.10915836 Ry
     estimated scf accuracy    <          8.2E-09 Ry

     The total energy is the sum of the following terms:
     one-electron contribution =     -62.04236872 Ry
     hartree contribution      =      34.35665997 Ry
     xc contribution           =      -8.64238165 Ry
     ewald contribution        =      11.21893204 Ry

     convergence has been achieved in   7 iterations

     Forces acting on atoms (cartesian axes, Ry/au):

     atom    1 type  2   force =     0.00000000    0.00000000    0.05441804
     atom    2 type  1   force =     0.00000000    0.00000000   -0.07060765
     atom    3 type  1   force =     0.00000000    0.00000000    0.07060765
     atom    4 type  2   force =    -0.00000000   -0.00000000   -0.05441804

     Total force =     0.126070     Total SCF correction =     0.000095
     Energy error            =      9.0E-02
     Gradient error          =      7.1E-02

     number of scf cycles    =   3
     number of bfgs steps    =   2

     energy   old            =     -25.0195166677 Ry
     energy   new            =     -25.1091583647 Ry

     CASE: energy  _new < energy  _old

     new trust radius        =       0.0897823381 bohr
     new conv_thr            =       0.0000000071 Ry


ATOMIC_POSITIONS (alat)
H             0.0000000000       -0.0000000000        0.5531636253
C             0.0000000000        0.0000000000        0.0895977278
C             0.0000000000        0.5773503000       -0.0895977278
H             0.0000000000        0.5773503000       -0.5531636253



     Writing output data file /tmp/Graphane.save/
     NEW-OLD atomic charge density approx. for the potential

     total cpu time spent up to now is        3.0 secs

     Self-consistent Calculation

     iteration #  1     ecut=    20.00 Ry     beta= 0.70
     Davidson diagonalization with overlap
     ethr =  1.00E-06,  avg # of iterations =  6.2

     total cpu time spent up to now is        3.1 secs

     total energy              =     -25.10789638 Ry
     estimated scf accuracy    <       0.01385609 Ry

     iteration #  2     ecut=    20.00 Ry     beta= 0.70
     Davidson diagonalization with overlap
     ethr =  1.39E-04,  avg # of iterations =  2.0

     total cpu time spent up to now is        3.2 secs

     total energy              =     -25.11137523 Ry
     estimated scf accuracy    <       0.00408687 Ry

     iteration #  3     ecut=    20.00 Ry     beta= 0.70
     Davidson diagonalization with overlap
     ethr =  4.09E-05,  avg # of iterations =  2.0

     total cpu time spent up to now is        3.2 secs

     total energy              =     -25.11218052 Ry
     estimated scf accuracy    <       0.00002178 Ry

     iteration #  4     ecut=    20.00 Ry     beta= 0.70
     Davidson diagonalization with overlap
     ethr =  2.18E-07,  avg # of iterations =  2.2

     total cpu time spent up to now is        3.3 secs

     total energy              =     -25.11218456 Ry
     estimated scf accuracy    <       0.00000453 Ry

     iteration #  5     ecut=    20.00 Ry     beta= 0.70
     Davidson diagonalization with overlap
     ethr =  4.53E-08,  avg # of iterations =  2.0

     total cpu time spent up to now is        3.4 secs

     total energy              =     -25.11218566 Ry
     estimated scf accuracy    <       0.00000055 Ry

     iteration #  6     ecut=    20.00 Ry     beta= 0.70
     Davidson diagonalization with overlap
     ethr =  5.53E-09,  avg # of iterations =  2.0

     total cpu time spent up to now is        3.4 secs

     End of self-consistent calculation

          k = 0.0000 0.0000 0.0000 (   397 PWs)   bands (ev):

   -17.3178  -9.1261  -2.2156   0.8922   0.8922

          k = 0.0000 0.1283 0.0000 (   399 PWs)   bands (ev):

   -17.0109  -8.8272  -2.0517  -0.4616   0.2937

          k = 0.0000 0.2566 0.0000 (   394 PWs)   bands (ev):

   -16.0977  -7.9855  -3.3533  -1.6149  -0.8823

          k = 0.0000 0.3849 0.0000 (   398 PWs)   bands (ev):

   -14.6068  -7.2705  -5.9329  -1.9137  -1.4868

          k = 0.0000 0.5132 0.0000 (   396 PWs)   bands (ev):

   -12.6684  -9.6356  -5.0619  -2.4761  -1.9993

          k = 0.1111 0.1925 0.0000 (   409 PWs)   bands (ev):

   -16.4023  -8.2607  -2.2454  -1.8322  -0.8781

          k = 0.1111 0.3208 0.0000 (   398 PWs)   bands (ev):

   -15.1982  -7.2779  -4.8324  -2.5024  -1.3495

          k = 0.1111 0.4491 0.0000 (   389 PWs)   bands (ev):

   -13.4546  -8.2216  -5.4484  -3.3216  -1.6456

          k = 0.1111 0.5774 0.0000 (   386 PWs)   bands (ev):

   -11.7986 -10.2339  -4.7099  -3.4810  -2.2071

          k = 0.2222 0.3849 0.0000 (   395 PWs)   bands (ev):

   -13.7337  -7.2464  -5.2969  -4.6476  -1.4908

          k = 0.2222 0.5132 0.0000 (   394 PWs)   bands (ev):

   -11.8427  -9.1504  -5.7882  -4.1474  -2.1735

          k = 0.3333 0.5774 0.0000 (   381 PWs)   bands (ev):

   -10.1604 -10.1604  -7.0242  -3.0445  -3.0445

     highest occupied level (ev):     0.8922

!    total energy              =     -25.11218575 Ry
     estimated scf accuracy    <          1.2E-09 Ry

     The total energy is the sum of the following terms:
     one-electron contribution =     -61.17200997 Ry
     hartree contribution      =      33.85581576 Ry
     xc contribution           =      -8.57583295 Ry
     ewald contribution        =      10.77984141 Ry

     convergence has been achieved in   6 iterations

     Forces acting on atoms (cartesian axes, Ry/au):

     atom    1 type  2   force =     0.00000000    0.00000000   -0.02067271
     atom    2 type  1   force =     0.00000000    0.00000000    0.05250382
     atom    3 type  1   force =     0.00000000   -0.00000000   -0.05250382
     atom    4 type  2   force =     0.00000000   -0.00000000    0.02067271

     Total force =     0.079800     Total SCF correction =     0.000026
     Energy error            =      3.0E-03
     Gradient error          =      5.3E-02

     number of scf cycles    =   4
     number of bfgs steps    =   3

     energy   old            =     -25.1091583647 Ry
     energy   new            =     -25.1121857540 Ry

     CASE: energy  _new < energy  _old

     new trust radius        =       0.0265010900 bohr
     new conv_thr            =       0.0000000030 Ry


ATOMIC_POSITIONS (alat)
H             0.0000000000        0.0000000000        0.5499631269
C             0.0000000000        0.0000000000        0.0952919886
C             0.0000000000        0.5773503000       -0.0952919886
H             0.0000000000        0.5773503000       -0.5499631269



     Writing output data file /tmp/Graphane.save/
     NEW-OLD atomic charge density approx. for the potential

     total cpu time spent up to now is        3.5 secs

     Self-consistent Calculation

     iteration #  1     ecut=    20.00 Ry     beta= 0.70
     Davidson diagonalization with overlap
     ethr =  1.00E-06,  avg # of iterations =  4.2

     total cpu time spent up to now is        3.6 secs

     total energy              =     -25.11392313 Ry
     estimated scf accuracy    <       0.00066738 Ry

     iteration #  2     ecut=    20.00 Ry     beta= 0.70
     Davidson diagonalization with overlap
     ethr =  6.67E-06,  avg # of iterations =  2.0

     total cpu time spent up to now is        3.6 secs

     total energy              =     -25.11405816 Ry
     estimated scf accuracy    <       0.00013524 Ry

     iteration #  3     ecut=    20.00 Ry     beta= 0.70
     Davidson diagonalization with overlap
     ethr =  1.35E-06,  avg # of iterations =  2.0

     total cpu time spent up to now is        3.7 secs

     total energy              =     -25.11408802 Ry
     estimated scf accuracy    <       0.00000242 Ry

     iteration #  4     ecut=    20.00 Ry     beta= 0.70
     Davidson diagonalization with overlap
     ethr =  2.42E-08,  avg # of iterations =  2.1

     total cpu time spent up to now is        3.8 secs

     total energy              =     -25.11408830 Ry
     estimated scf accuracy    <       0.00000015 Ry

     iteration #  5     ecut=    20.00 Ry     beta= 0.70
     Davidson diagonalization with overlap
     ethr =  1.48E-09,  avg # of iterations =  2.5

     total cpu time spent up to now is        3.8 secs

     total energy              =     -25.11408835 Ry
     estimated scf accuracy    <       0.00000006 Ry

     iteration #  6     ecut=    20.00 Ry     beta= 0.70
     Davidson diagonalization with overlap
     ethr =  6.30E-10,  avg # of iterations =  2.0

     total cpu time spent up to now is        3.9 secs

     End of self-consistent calculation

          k = 0.0000 0.0000 0.0000 (   397 PWs)   bands (ev):

   -17.1852  -9.1845  -2.3414   1.1585   1.1585

          k = 0.0000 0.1283 0.0000 (   399 PWs)   bands (ev):

   -16.8772  -8.8896  -2.1842  -0.2127   0.5589

          k = 0.0000 0.2566 0.0000 (   394 PWs)   bands (ev):

   -15.9611  -8.0602  -3.1369  -1.7575  -0.6168

          k = 0.0000 0.3849 0.0000 (   398 PWs)   bands (ev):

   -14.4661  -7.2731  -5.8191  -1.6542  -1.6471

          k = 0.0000 0.5132 0.0000 (   396 PWs)   bands (ev):

   -12.5273  -9.4749  -5.1450  -2.2089  -2.1520

          k = 0.1111 0.1925 0.0000 (   409 PWs)   bands (ev):

   -16.2667  -8.3312  -2.0108  -1.9603  -0.6383

          k = 0.1111 0.3208 0.0000 (   398 PWs)   bands (ev):

   -15.0590  -7.3602  -4.6217  -2.3079  -1.4555

          k = 0.1111 0.4491 0.0000 (   389 PWs)   bands (ev):

   -13.3120  -8.0875  -5.4902  -3.0891  -1.7919

          k = 0.1111 0.5774 0.0000 (   386 PWs)   bands (ev):

   -11.6629 -10.0653  -4.7834  -3.2516  -2.3503

          k = 0.2222 0.3849 0.0000 (   395 PWs)   bands (ev):

   -13.5910  -7.1897  -5.2529  -4.4245  -1.6442

          k = 0.2222 0.5132 0.0000 (   394 PWs)   bands (ev):

   -11.6994  -9.0027  -5.5913  -4.1983  -2.3128

          k = 0.3333 0.5774 0.0000 (   381 PWs)   bands (ev):

   -10.0198 -10.0198  -6.7930  -3.1569  -3.1569

     highest occupied level (ev):     1.1585

!    total energy              =     -25.11408837 Ry
     estimated scf accuracy    <          2.6E-11 Ry

     The total energy is the sum of the following terms:
     one-electron contribution =     -61.11197665 Ry
     hartree contribution      =      33.85844232 Ry
     xc contribution           =      -8.58719693 Ry
     ewald contribution        =      10.72664289 Ry

     convergence has been achieved in   6 iterations

     Forces acting on atoms (cartesian axes, Ry/au):

     atom    1 type  2   force =     0.00000000    0.00000000   -0.00354786
     atom    2 type  1   force =     0.00000000   -0.00000000    0.00511543
     atom    3 type  1   force =     0.00000000    0.00000000   -0.00511543
     atom    4 type  2   force =     0.00000000   -0.00000000    0.00354786

     Total force =     0.008804     Total SCF correction =     0.000006
     Energy error            =      1.9E-03
     Gradient error          =      5.1E-03

     number of scf cycles    =   5
     number of bfgs steps    =   4

     energy   old            =     -25.1121857540 Ry
     energy   new            =     -25.1140883663 Ry

     CASE: energy  _new < energy  _old

     new trust radius        =       0.0052375873 bohr
     new conv_thr            =       0.0000000005 Ry


ATOMIC_POSITIONS (alat)
H             0.0000000000        0.0000000000        0.5488377321
C             0.0000000000        0.0000000000        0.0957395936
C             0.0000000000        0.5773503000       -0.0957395936
H             0.0000000000        0.5773503000       -0.5488377321



     Writing output data file /tmp/Graphane.save/
     NEW-OLD atomic charge density approx. for the potential

     total cpu time spent up to now is        3.9 secs

     Self-consistent Calculation

     iteration #  1     ecut=    20.00 Ry     beta= 0.70
     Davidson diagonalization with overlap
     ethr =  1.00E-06,  avg # of iterations =  2.7

     total cpu time spent up to now is        4.0 secs

     total energy              =     -25.11410677 Ry
     estimated scf accuracy    <       0.00003468 Ry

     iteration #  2     ecut=    20.00 Ry     beta= 0.70
     Davidson diagonalization with overlap
     ethr =  3.47E-07,  avg # of iterations =  2.0

     total cpu time spent up to now is        4.1 secs

     total energy              =     -25.11411409 Ry
     estimated scf accuracy    <       0.00000610 Ry

     iteration #  3     ecut=    20.00 Ry     beta= 0.70
     Davidson diagonalization with overlap
     ethr =  6.10E-08,  avg # of iterations =  2.0

     total cpu time spent up to now is        4.1 secs

     total energy              =     -25.11411540 Ry
     estimated scf accuracy    <       0.00000008 Ry

     iteration #  4     ecut=    20.00 Ry     beta= 0.70
     Davidson diagonalization with overlap
     ethr =  8.49E-10,  avg # of iterations =  1.9

     total cpu time spent up to now is        4.2 secs

     total energy              =     -25.11411541 Ry
     estimated scf accuracy    <          7.6E-09 Ry

     iteration #  5     ecut=    20.00 Ry     beta= 0.70
     Davidson diagonalization with overlap
     ethr =  7.62E-11,  avg # of iterations =  2.0

     total cpu time spent up to now is        4.2 secs

     total energy              =     -25.11411541 Ry
     estimated scf accuracy    <          2.0E-09 Ry

     iteration #  6     ecut=    20.00 Ry     beta= 0.70
     Davidson diagonalization with overlap
     ethr =  1.99E-11,  avg # of iterations =  2.0

     total cpu time spent up to now is        4.3 secs

     End of self-consistent calculation

          k = 0.0000 0.0000 0.0000 (   397 PWs)   bands (ev):

   -17.1769  -9.2000  -2.3488   1.1812   1.1812

          k = 0.0000 0.1283 0.0000 (   399 PWs)   bands (ev):

   -16.8689  -8.9057  -2.1931  -0.1915   0.5815

          k = 0.0000 0.2566 0.0000 (   394 PWs)   bands (ev):

   -15.9525  -8.0782  -3.1191  -1.7694  -0.5942

          k = 0.0000 0.3849 0.0000 (   398 PWs)   bands (ev):

   -14.4574  -7.2861  -5.8096  -1.6730  -1.6243

          k = 0.0000 0.5132 0.0000 (   396 PWs)   bands (ev):

   -12.5189  -9.4648  -5.1625  -2.1861  -2.1724

          k = 0.1111 0.1925 0.0000 (   409 PWs)   bands (ev):

   -16.2582  -8.3485  -1.9909  -1.9714  -0.6170

          k = 0.1111 0.3208 0.0000 (   398 PWs)   bands (ev):

   -15.0502  -7.3800  -4.6035  -2.2953  -1.4635

          k = 0.1111 0.4491 0.0000 (   389 PWs)   bands (ev):

   -13.3032  -8.0821  -5.5015  -3.0704  -1.8101

          k = 0.1111 0.5774 0.0000 (   386 PWs)   bands (ev):

   -11.6554 -10.0539  -4.8011  -3.2318  -2.3703

          k = 0.2222 0.3849 0.0000 (   395 PWs)   bands (ev):

   -13.5821  -7.1958  -5.2513  -4.4069  -1.6629

          k = 0.2222 0.5132 0.0000 (   394 PWs)   bands (ev):

   -11.6909  -8.9947  -5.5775  -4.2096  -2.3330

          k = 0.3333 0.5774 0.0000 (   381 PWs)   bands (ev):

   -10.0122 -10.0122  -6.7735  -3.1759  -3.1759

     highest occupied level (ev):     1.1812

!    total energy              =     -25.11411541 Ry
     estimated scf accuracy    <          6.9E-12 Ry

     The total energy is the sum of the following terms:
     one-electron contribution =     -61.16998859 Ry
     hartree contribution      =      33.89052494 Ry
     xc contribution           =      -8.59093978 Ry
     ewald contribution        =      10.75628802 Ry

     convergence has been achieved in   6 iterations

     Forces acting on atoms (cartesian axes, Ry/au):

     atom    1 type  2   force =     0.00000000    0.00000000    0.00017760
     atom    2 type  1   force =     0.00000000    0.00000000   -0.00064642
     atom    3 type  1   force =     0.00000000    0.00000000    0.00064642
     atom    4 type  2   force =     0.00000000   -0.00000000   -0.00017760

     Total force =     0.000948     Total SCF correction =     0.000003
     Energy error            =      2.7E-05
     Gradient error          =      6.5E-04

     bfgs converged in   6 scf cycles and   5 bfgs steps
     (criteria: energy <  1.0E-04 Ry, force <  1.0E-03 Ry/Bohr)

     End of BFGS Geometry Optimization

     Final energy   =     -25.1141154114 Ry

     File /tmp/Graphane.bfgs deleted, as requested
Begin final coordinates

ATOMIC_POSITIONS (alat)
H             0.0000000000        0.0000000000        0.5488377321
C             0.0000000000        0.0000000000        0.0957395936
C             0.0000000000        0.5773503000       -0.0957395936
H             0.0000000000        0.5773503000       -0.5488377321
End final coordinates



     Writing output data file /tmp/Graphane.save/

     init_run     :      0.16s CPU      0.43s WALL (       1 calls)
     electrons    :      2.48s CPU      2.59s WALL (       6 calls)
     update_pot   :      0.12s CPU      0.13s WALL (       5 calls)
     forces       :      0.15s CPU      0.16s WALL (       6 calls)

     Called by init_run:
     wfcinit      :      0.01s CPU      0.07s WALL (       1 calls)
     potinit      :      0.02s CPU      0.04s WALL (       1 calls)
     hinit0       :      0.11s CPU      0.25s WALL (       1 calls)

     Called by electrons:
     c_bands      :      1.16s CPU      1.22s WALL (      40 calls)
     sum_band     :      0.47s CPU      0.48s WALL (      40 calls)
     v_of_rho     :      0.60s CPU      0.61s WALL (      46 calls)
     newd         :      0.28s CPU      0.28s WALL (      46 calls)
     mix_rho      :      0.03s CPU      0.05s WALL (      40 calls)

     Called by c_bands:
     init_us_2    :      0.08s CPU      0.08s WALL (    1044 calls)
     cegterg      :      1.06s CPU      1.11s WALL (     480 calls)

     Called by *egterg:
     cdiaghg      :      0.05s CPU      0.10s WALL (    1704 calls)
     h_psi        :      0.75s CPU      0.79s WALL (    1776 calls)
     s_psi        :      0.07s CPU      0.08s WALL (    1776 calls)
     g_psi        :      0.01s CPU      0.01s WALL (    1284 calls)

     Called by h_psi:
     h_psi:calbec :      0.08s CPU      0.08s WALL (    1776 calls)
     vloc_psi     :      0.58s CPU      0.61s WALL (    1776 calls)
     add_vuspsi   :      0.08s CPU      0.08s WALL (    1776 calls)

     General routines
     calbec       :      0.11s CPU      0.12s WALL (    2544 calls)
     fft          :      0.20s CPU      0.27s WALL (     603 calls)
     ffts         :      0.01s CPU      0.01s WALL (      86 calls)
     fftw         :      0.48s CPU      0.50s WALL (   17478 calls)
     interpolate  :      0.02s CPU      0.02s WALL (      46 calls)

     Parallel routines

     PWSCF        :      3.03s CPU      4.36s WALL


   This run was terminated on:  14:26:55  26Apr2021            

=------------------------------------------------------------------------------=
   JOB DONE.
=------------------------------------------------------------------------------=
