
     Program PHONON v.6.4.1 starts on 29Aug2019 at 18:28:58 

     This program is part of the open-source Quantum ESPRESSO suite
     for quantum simulation of materials; please cite
         "P. Giannozzi et al., J. Phys.:Condens. Matter 21 395502 (2009);
         "P. Giannozzi et al., J. Phys.:Condens. Matter 29 465901 (2017);
          URL http://www.quantum-espresso.org", 
     in publications or presentations arising from this work. More details at
     http://www.quantum-espresso.org/quote

     Parallel version (MPI), running on     8 processors

     MPI processes distributed on     1 nodes
     R & G space division:  proc/nbgrp/npool/nimage =       8

     Reading data from directory:
     ./out/AlAs.save/

     IMPORTANT: XC functional enforced from input :
     Exchange-correlation      = PZ ( 1  1  0  0 0 0)
     Any further DFT definition will be discarded
     Please, verify this is what you really want

 
     Parallelization info
     --------------------
     sticks:   dense  smooth     PW     G-vecs:    dense   smooth      PW
     Min          30      30     10                  305      305      57
     Max          31      31     11                  308      308      58
     Sum         241     241     85                 2445     2445     459
 


     Dynamical matrices for ( 4, 4, 4)  uniform grid of q-points
     (   8 q-points):
       N         xq(1)         xq(2)         xq(3) 
       1   0.000000000   0.000000000   0.000000000
       2  -0.250000000   0.250000000  -0.250000000
       3   0.500000000  -0.500000000   0.500000000
       4   0.000000000   0.500000000   0.000000000
       5   0.750000000  -0.250000000   0.750000000
       6   0.500000000   0.000000000   0.500000000
       7   0.000000000  -1.000000000   0.000000000
       8  -0.500000000  -1.000000000   0.000000000

     Calculation of q =    0.0000000   0.0000000   0.0000000

     Phonons on a uniform q-grid                                                

     bravais-lattice index     =            2
     lattice parameter (alat)  =      10.5000  a.u.
     unit-cell volume          =     289.4062 (a.u.)^3
     number of atoms/cell      =            2
     number of atomic types    =            2
     kinetic-energy cut-off    =      16.0000  Ry
     charge density cut-off    =      64.0000  Ry
     convergence threshold     =      1.0E-14
     beta                      =       0.7000
     number of iterations used =            4
     Exchange-correlation      = PZ ( 1  1  0  0 0 0)


     celldm(1)=   10.50000  celldm(2)=    0.00000  celldm(3)=    0.00000
     celldm(4)=    0.00000  celldm(5)=    0.00000  celldm(6)=    0.00000

     crystal axes: (cart. coord. in units of alat)
               a(1) = ( -0.5000  0.0000  0.5000 )  
               a(2) = (  0.0000  0.5000  0.5000 )  
               a(3) = ( -0.5000  0.5000  0.0000 )  

     reciprocal axes: (cart. coord. in units 2 pi/alat)
               b(1) = ( -1.0000 -1.0000  1.0000 )  
               b(2) = (  1.0000  1.0000  1.0000 )  
               b(3) = ( -1.0000  1.0000 -1.0000 )  


     Atoms inside the unit cell: 

     Cartesian axes

     site n.  atom      mass           positions (alat units)
        1     Al  26.9800   tau(    1) = (    0.00000    0.00000    0.00000  )
        2     As  74.9200   tau(    2) = (    0.25000    0.25000    0.25000  )

     Computing dynamical matrix for 
                    q = (   0.0000000   0.0000000   0.0000000 )
 
     25 Sym.Ops. (with q -> -q+G )


     G cutoff =  178.7306  (    306 G-vectors)     FFT grid: ( 20, 20, 20)
     number of k points=     2

     PseudoPot. # 1 for Al read from file:
     ./Al.pz-vbc.UPF
     MD5 check sum: 13b59ac2968bcb74bf87a15840bc9960
     Pseudo is Norm-conserving, Zval =  3.0
     Generated by new atomic code, or converted to UPF format
     Using radial grid of  171 points,  2 beta functions with: 
                l(1) =   0
                l(2) =   1

     PseudoPot. # 2 for As read from file:
     ./As.pz-bhs.UPF
     MD5 check sum: d9127a8b584737f42ec2fe47e3acdea8
     Pseudo is Norm-conserving, Zval =  5.0
     Generated by new atomic code, or converted to UPF format
     Using radial grid of  525 points,  2 beta functions with: 
                l(1) =   0
                l(2) =   1

     Mode symmetry, T_d (-43m)  point group:


     Electric field:
     Dielectric constant
     Born effective charges in two ways 


     Atomic displacements:
     There are   2 irreducible representations

     Representation     1      3 modes -T_2  G_15 P_4  To be done

     Representation     2      3 modes -T_2  G_15 P_4  To be done



     Alpha used in Ewald sum =   0.7000
     PHONON       :      0.24s CPU      0.46s WALL


     Electric Fields Calculation

      iter #   1 total cpu time :     0.6 secs   av.it.:   6.0
      thresh= 1.000E-02 alpha_mix =  0.700 |ddv_scf|^2 =  9.208E-07

      iter #   2 total cpu time :     0.8 secs   av.it.:   9.5
      thresh= 9.596E-05 alpha_mix =  0.700 |ddv_scf|^2 =  4.519E-08

      iter #   3 total cpu time :     0.9 secs   av.it.:   9.7
      thresh= 2.126E-05 alpha_mix =  0.700 |ddv_scf|^2 =  4.445E-10

      iter #   4 total cpu time :     1.0 secs   av.it.:   9.8
      thresh= 2.108E-06 alpha_mix =  0.700 |ddv_scf|^2 =  2.158E-12

      iter #   5 total cpu time :     1.1 secs   av.it.:   9.3
      thresh= 1.469E-07 alpha_mix =  0.700 |ddv_scf|^2 =  1.073E-14

      iter #   6 total cpu time :     1.2 secs   av.it.:   9.8
      thresh= 1.036E-08 alpha_mix =  0.700 |ddv_scf|^2 =  1.160E-16

     End of electric fields calculation

          Dielectric constant in cartesian axis 

          (      13.743494475       0.000000000       0.000000000 )
          (       0.000000000      13.743494475       0.000000000 )
          (       0.000000000       0.000000000      13.743494475 )

          Effective charges (d Force / dE) in cartesian axis

           atom      1   Al 
      Ex  (        1.88274       -0.00000       -0.00000 )
      Ey  (       -0.00000        1.88274       -0.00000 )
      Ez  (       -0.00000       -0.00000        1.88274 )
           atom      2   As 
      Ex  (       -3.23377        0.00000       -0.00000 )
      Ey  (        0.00000       -3.23377       -0.00000 )
      Ez  (       -0.00000        0.00000       -3.23377 )


     Representation #  1 modes #   1  2  3

     Self-consistent Calculation

      iter #   1 total cpu time :     1.4 secs   av.it.:   5.8
      thresh= 1.000E-02 alpha_mix =  0.700 |ddv_scf|^2 =  3.236E-07

      iter #   2 total cpu time :     1.5 secs   av.it.:  10.3
      thresh= 5.689E-05 alpha_mix =  0.700 |ddv_scf|^2 =  1.573E-08

      iter #   3 total cpu time :     1.7 secs   av.it.:  10.0
      thresh= 1.254E-05 alpha_mix =  0.700 |ddv_scf|^2 =  2.635E-11

      iter #   4 total cpu time :     1.8 secs   av.it.:   9.5
      thresh= 5.133E-07 alpha_mix =  0.700 |ddv_scf|^2 =  4.975E-13

      iter #   5 total cpu time :     1.9 secs   av.it.:   9.5
      thresh= 7.054E-08 alpha_mix =  0.700 |ddv_scf|^2 =  5.080E-15

     End of self-consistent calculation

     Convergence has been achieved 


     Representation #  2 modes #   4  5  6

     Self-consistent Calculation

      iter #   1 total cpu time :     2.1 secs   av.it.:   4.8
      thresh= 1.000E-02 alpha_mix =  0.700 |ddv_scf|^2 =  2.022E-08

      iter #   2 total cpu time :     2.2 secs   av.it.:  10.3
      thresh= 1.422E-05 alpha_mix =  0.700 |ddv_scf|^2 =  2.226E-10

      iter #   3 total cpu time :     2.4 secs   av.it.:   9.8
      thresh= 1.492E-06 alpha_mix =  0.700 |ddv_scf|^2 =  2.071E-11

      iter #   4 total cpu time :     2.5 secs   av.it.:   9.5
      thresh= 4.551E-07 alpha_mix =  0.700 |ddv_scf|^2 =  8.522E-13

      iter #   5 total cpu time :     2.6 secs   av.it.:   9.8
      thresh= 9.231E-08 alpha_mix =  0.700 |ddv_scf|^2 =  3.280E-16

     End of self-consistent calculation

     Convergence has been achieved 
 
     Number of q in the star =    1
     List of q in the star:
          1   0.000000000   0.000000000   0.000000000

          Dielectric constant in cartesian axis 

          (      13.743494475       0.000000000       0.000000000 )
          (       0.000000000      13.743494475       0.000000000 )
          (       0.000000000       0.000000000      13.743494475 )

          Effective charges (d Force / dE) in cartesian axis

           atom      1   Al 
      Ex  (        1.88274       -0.00000       -0.00000 )
      Ey  (       -0.00000        1.88274       -0.00000 )
      Ez  (       -0.00000       -0.00000        1.88274 )
           atom      2   As 
      Ex  (       -3.23377        0.00000       -0.00000 )
      Ey  (        0.00000       -3.23377       -0.00000 )
      Ez  (       -0.00000        0.00000       -3.23377 )

          Effective charges (d P / du) in cartesian axis 

           atom      1   Al 
      Px  (        1.88292       -0.00000        0.00000 )
      Py  (       -0.00000        1.88292        0.00000 )
      Pz  (        0.00000        0.00000        1.88292 )
           atom      2   As 
      Px  (       -3.23336        0.00000       -0.00000 )
      Py  (        0.00000       -3.23336        0.00000 )
      Pz  (       -0.00000       -0.00000       -3.23336 )

     Diagonalizing the dynamical matrix

     q = (    0.000000000   0.000000000   0.000000000 ) 

 **************************************************************************
     freq (    1) =       0.147836 [THz] =       4.931268 [cm-1]
     freq (    2) =       0.147836 [THz] =       4.931268 [cm-1]
     freq (    3) =       0.147836 [THz] =       4.931268 [cm-1]
     freq (    4) =      11.258207 [THz] =     375.533365 [cm-1]
     freq (    5) =      11.258207 [THz] =     375.533365 [cm-1]
     freq (    6) =      11.258207 [THz] =     375.533365 [cm-1]
 **************************************************************************

     Mode symmetry, T_d (-43m)  point group:

     freq (  1 -  3) =          4.9  [cm-1]   --> T_2  G_15 P_4   I+R
     freq (  4 -  6) =        375.5  [cm-1]   --> T_2  G_15 P_4   I+R

     Calculation of q =   -0.2500000   0.2500000  -0.2500000

     Subspace diagonalization in iterative solution of the eigenvalue problem:
     a serial algorithm will be used

 
     Parallelization info
     --------------------
     sticks:   dense  smooth     PW     G-vecs:    dense   smooth      PW
     Min          30      30     10                  305      305      65
     Max          31      31     11                  308      308      68
     Sum         241     241     85                 2445     2445     531
 

     Title: 
     Phonons on a uniform q-grid                                                


     bravais-lattice index     =            2
     lattice parameter (alat)  =      10.5000  a.u.
     unit-cell volume          =     289.4062 (a.u.)^3
     number of atoms/cell      =            2
     number of atomic types    =            2
     number of electrons       =         8.00
     number of Kohn-Sham states=            4
     kinetic-energy cutoff     =      16.0000  Ry
     charge density cutoff     =      64.0000  Ry
     Exchange-correlation      = PZ ( 1  1  0  0 0 0)

     celldm(1)=  10.500000  celldm(2)=   0.000000  celldm(3)=   0.000000
     celldm(4)=   0.000000  celldm(5)=   0.000000  celldm(6)=   0.000000

     crystal axes: (cart. coord. in units of alat)
               a(1) = (  -0.500000   0.000000   0.500000 )  
               a(2) = (   0.000000   0.500000   0.500000 )  
               a(3) = (  -0.500000   0.500000   0.000000 )  

     reciprocal axes: (cart. coord. in units 2 pi/alat)
               b(1) = ( -1.000000 -1.000000  1.000000 )  
               b(2) = (  1.000000  1.000000  1.000000 )  
               b(3) = ( -1.000000  1.000000 -1.000000 )  


     PseudoPot. # 1 for Al read from file:
     ./Al.pz-vbc.UPF
     MD5 check sum: 13b59ac2968bcb74bf87a15840bc9960
     Pseudo is Norm-conserving, Zval =  3.0
     Generated by new atomic code, or converted to UPF format
     Using radial grid of  171 points,  2 beta functions with: 
                l(1) =   0
                l(2) =   1

     PseudoPot. # 2 for As read from file:
     ./As.pz-bhs.UPF
     MD5 check sum: d9127a8b584737f42ec2fe47e3acdea8
     Pseudo is Norm-conserving, Zval =  5.0
     Generated by new atomic code, or converted to UPF format
     Using radial grid of  525 points,  2 beta functions with: 
                l(1) =   0
                l(2) =   1

     atomic species   valence    mass     pseudopotential
        Al             3.00    26.98000     Al( 1.00)
        As             5.00    74.92000     As( 1.00)

     24 Sym. Ops. (no inversion) found



   Cartesian axes

     site n.     atom                  positions (alat units)
         1           Al  tau(   1) = (   0.0000000   0.0000000   0.0000000  )
         2           As  tau(   2) = (   0.2500000   0.2500000   0.2500000  )

     number of k points=    20
                       cart. coord. in units 2pi/alat
        k(    1) = (   0.2500000   0.2500000   0.2500000), wk =   0.1875000
        k(    2) = (   0.0000000   0.5000000   0.0000000), wk =   0.0000000
        k(    3) = (   0.2500000   0.2500000   0.7500000), wk =   0.3750000
        k(    4) = (   0.0000000   0.5000000   0.5000000), wk =   0.0000000
        k(    5) = (  -0.2500000   0.2500000  -0.2500000), wk =   0.0625000
        k(    6) = (  -0.5000000   0.5000000  -0.5000000), wk =   0.0000000
        k(    7) = (  -0.2500000  -0.2500000  -0.2500000), wk =   0.1875000
        k(    8) = (  -0.5000000   0.0000000  -0.5000000), wk =   0.0000000
        k(    9) = (   0.2500000  -0.2500000   0.2500000), wk =   0.0625000
        k(   10) = (   0.0000000   0.0000000   0.0000000), wk =   0.0000000
        k(   11) = (  -0.7500000  -0.2500000   0.2500000), wk =   0.1875000
        k(   12) = (  -1.0000000   0.0000000   0.0000000), wk =   0.0000000
        k(   13) = (  -0.7500000   0.2500000  -0.2500000), wk =   0.1875000
        k(   14) = (  -1.0000000   0.5000000  -0.5000000), wk =   0.0000000
        k(   15) = (  -0.2500000  -0.2500000  -0.7500000), wk =   0.3750000
        k(   16) = (  -0.5000000   0.0000000  -1.0000000), wk =   0.0000000
        k(   17) = (   0.2500000  -0.2500000   0.7500000), wk =   0.1875000
        k(   18) = (   0.0000000   0.0000000   0.5000000), wk =   0.0000000
        k(   19) = (  -0.2500000   0.2500000   0.7500000), wk =   0.1875000
        k(   20) = (  -0.5000000   0.5000000   0.5000000), wk =   0.0000000

     Dense  grid:     2445 G-vectors     FFT dimensions: (  20,  20,  20)

     Estimated max dynamical RAM per process >       0.36 MB

     Estimated total dynamical RAM >       2.88 MB

     The potential is recalculated from file :
     ./out/_ph0/AlAs.save/charge-density

     Starting wfcs are    8 atomic wfcs

     Band Structure Calculation
     Davidson diagonalization with overlap

     ethr =  1.25E-10,  avg # of iterations = 11.0

     total cpu time spent up to now is        0.3 secs

     End of band structure calculation

          k = 0.2500 0.2500 0.2500 (   311 PWs)   bands (ev):

    -6.3574   1.7036   4.6970   4.6970

          k = 0.0000 0.5000 0.0000 (   311 PWs)   bands (ev):

    -6.1429   1.9397   3.7848   3.7848

          k = 0.2500 0.2500 0.7500 (   311 PWs)   bands (ev):

    -5.1818  -0.0414   2.3126   3.5086

          k = 0.0000 0.5000 0.5000 (   315 PWs)   bands (ev):

    -5.5286   0.5005   2.1485   4.2664

          k =-0.2500 0.2500-0.2500 (   311 PWs)   bands (ev):

    -6.3574   1.7036   4.6970   4.6970

          k =-0.5000 0.5000-0.5000 (   302 PWs)   bands (ev):

    -5.4217  -0.6402   4.3484   4.3484

          k =-0.2500-0.2500-0.2500 (   311 PWs)   bands (ev):

    -6.3574   1.7036   4.6970   4.6970

          k =-0.5000 0.0000-0.5000 (   315 PWs)   bands (ev):

    -5.5286   0.5005   2.1485   4.2664

          k = 0.2500-0.2500 0.2500 (   311 PWs)   bands (ev):

    -6.3574   1.7036   4.6970   4.6970

          k = 0.0000 0.0000 0.0000 (   331 PWs)   bands (ev):

    -6.9796   5.1762   5.1762   5.1762

          k =-0.7500-0.2500 0.2500 (   311 PWs)   bands (ev):

    -5.1818  -0.0414   2.3126   3.5086

          k =-1.0000 0.0000 0.0000 (   302 PWs)   bands (ev):

    -4.8215  -0.4470   2.9274   2.9274

          k =-0.7500 0.2500-0.2500 (   311 PWs)   bands (ev):

    -5.1818  -0.0414   2.3126   3.5086

          k =-1.0000 0.5000-0.5000 (   315 PWs)   bands (ev):

    -5.5286   0.5005   2.1485   4.2664

          k =-0.2500-0.2500-0.7500 (   311 PWs)   bands (ev):

    -5.1818  -0.0414   2.3126   3.5086

          k =-0.5000 0.0000-1.0000 (   308 PWs)   bands (ev):

    -4.7851  -0.0517   1.7950   2.1910

          k = 0.2500-0.2500 0.7500 (   311 PWs)   bands (ev):

    -5.1818  -0.0414   2.3126   3.5086

          k = 0.0000 0.0000 0.5000 (   311 PWs)   bands (ev):

    -6.1429   1.9397   3.7848   3.7848

          k =-0.2500 0.2500 0.7500 (   311 PWs)   bands (ev):

    -5.1818  -0.0414   2.3126   3.5086

          k =-0.5000 0.5000 0.5000 (   302 PWs)   bands (ev):

    -5.4217  -0.6402   4.3484   4.3484

     highest occupied level (ev):     4.6970

     Writing output data file AlAs.save/

     Phonons on a uniform q-grid                                                

     bravais-lattice index     =            2
     lattice parameter (alat)  =      10.5000  a.u.
     unit-cell volume          =     289.4062 (a.u.)^3
     number of atoms/cell      =            2
     number of atomic types    =            2
     kinetic-energy cut-off    =      16.0000  Ry
     charge density cut-off    =      64.0000  Ry
     convergence threshold     =      1.0E-14
     beta                      =       0.7000
     number of iterations used =            4
     Exchange-correlation      = PZ ( 1  1  0  0 0 0)


     celldm(1)=   10.50000  celldm(2)=    0.00000  celldm(3)=    0.00000
     celldm(4)=    0.00000  celldm(5)=    0.00000  celldm(6)=    0.00000

     crystal axes: (cart. coord. in units of alat)
               a(1) = ( -0.5000  0.0000  0.5000 )  
               a(2) = (  0.0000  0.5000  0.5000 )  
               a(3) = ( -0.5000  0.5000  0.0000 )  

     reciprocal axes: (cart. coord. in units 2 pi/alat)
               b(1) = ( -1.0000 -1.0000  1.0000 )  
               b(2) = (  1.0000  1.0000  1.0000 )  
               b(3) = ( -1.0000  1.0000 -1.0000 )  


     Atoms inside the unit cell: 

     Cartesian axes

     site n.  atom      mass           positions (alat units)
        1     Al  26.9800   tau(    1) = (    0.00000    0.00000    0.00000  )
        2     As  74.9200   tau(    2) = (    0.25000    0.25000    0.25000  )

     Computing dynamical matrix for 
                    q = (  -0.2500000   0.2500000  -0.2500000 )
 
      6 Sym.Ops. (no q -> -q+G )


     G cutoff =  178.7306  (    306 G-vectors)     FFT grid: ( 20, 20, 20)
     number of k points=    20

     PseudoPot. # 1 for Al read from file:
     ./Al.pz-vbc.UPF
     MD5 check sum: 13b59ac2968bcb74bf87a15840bc9960
     Pseudo is Norm-conserving, Zval =  3.0
     Generated by new atomic code, or converted to UPF format
     Using radial grid of  171 points,  2 beta functions with: 
                l(1) =   0
                l(2) =   1

     PseudoPot. # 2 for As read from file:
     ./As.pz-bhs.UPF
     MD5 check sum: d9127a8b584737f42ec2fe47e3acdea8
     Pseudo is Norm-conserving, Zval =  5.0
     Generated by new atomic code, or converted to UPF format
     Using radial grid of  525 points,  2 beta functions with: 
                l(1) =   0
                l(2) =   1

     Mode symmetry, C_3v (3m)   point group:


     Atomic displacements:
     There are   4 irreducible representations

     Representation     1      1 modes -A_1  L_1  To be done

     Representation     2      1 modes -A_1  L_1  To be done

     Representation     3      2 modes -E    L_3  To be done

     Representation     4      2 modes -E    L_3  To be done



     Alpha used in Ewald sum =   0.7000
     PHONON       :      1.77s CPU      3.10s WALL



     Representation #  1 mode #   1

     Self-consistent Calculation

      iter #   1 total cpu time :     3.2 secs   av.it.:   5.6
      thresh= 1.000E-02 alpha_mix =  0.700 |ddv_scf|^2 =  4.524E-04

      iter #   2 total cpu time :     3.3 secs   av.it.:   7.7
      thresh= 2.127E-03 alpha_mix =  0.700 |ddv_scf|^2 =  4.117E-03

      iter #   3 total cpu time :     3.4 secs   av.it.:   6.4
      thresh= 6.416E-03 alpha_mix =  0.700 |ddv_scf|^2 =  1.502E-07

      iter #   4 total cpu time :     3.5 secs   av.it.:   8.3
      thresh= 3.876E-05 alpha_mix =  0.700 |ddv_scf|^2 =  3.789E-09

      iter #   5 total cpu time :     3.6 secs   av.it.:   8.4
      thresh= 6.155E-06 alpha_mix =  0.700 |ddv_scf|^2 =  7.261E-10

      iter #   6 total cpu time :     3.8 secs   av.it.:   7.6
      thresh= 2.695E-06 alpha_mix =  0.700 |ddv_scf|^2 =  5.582E-10

      iter #   7 total cpu time :     3.9 secs   av.it.:   7.0
      thresh= 2.363E-06 alpha_mix =  0.700 |ddv_scf|^2 =  2.262E-11

      iter #   8 total cpu time :     4.0 secs   av.it.:   7.5
      thresh= 4.756E-07 alpha_mix =  0.700 |ddv_scf|^2 =  2.997E-13

      iter #   9 total cpu time :     4.1 secs   av.it.:   8.2
      thresh= 5.475E-08 alpha_mix =  0.700 |ddv_scf|^2 =  9.801E-14

      iter #  10 total cpu time :     4.2 secs   av.it.:   7.2
      thresh= 3.131E-08 alpha_mix =  0.700 |ddv_scf|^2 =  1.478E-15

     End of self-consistent calculation

     Convergence has been achieved 


     Representation #  2 mode #   2

     Self-consistent Calculation

      iter #   1 total cpu time :     4.4 secs   av.it.:   6.2
      thresh= 1.000E-02 alpha_mix =  0.700 |ddv_scf|^2 =  2.142E-03

      iter #   2 total cpu time :     4.5 secs   av.it.:   7.7
      thresh= 4.628E-03 alpha_mix =  0.700 |ddv_scf|^2 =  2.058E-02

      iter #   3 total cpu time :     4.6 secs   av.it.:   6.8
      thresh= 1.000E-02 alpha_mix =  0.700 |ddv_scf|^2 =  4.409E-06

      iter #   4 total cpu time :     4.7 secs   av.it.:   7.6
      thresh= 2.100E-04 alpha_mix =  0.700 |ddv_scf|^2 =  9.822E-08

      iter #   5 total cpu time :     4.8 secs   av.it.:   7.9
      thresh= 3.134E-05 alpha_mix =  0.700 |ddv_scf|^2 =  6.269E-09

      iter #   6 total cpu time :     4.9 secs   av.it.:   7.0
      thresh= 7.918E-06 alpha_mix =  0.700 |ddv_scf|^2 =  3.079E-10

      iter #   7 total cpu time :     5.1 secs   av.it.:   7.4
      thresh= 1.755E-06 alpha_mix =  0.700 |ddv_scf|^2 =  2.443E-11

      iter #   8 total cpu time :     5.2 secs   av.it.:   7.2
      thresh= 4.943E-07 alpha_mix =  0.700 |ddv_scf|^2 =  1.156E-13

      iter #   9 total cpu time :     5.3 secs   av.it.:   7.5
      thresh= 3.400E-08 alpha_mix =  0.700 |ddv_scf|^2 =  2.650E-15

     End of self-consistent calculation

     Convergence has been achieved 


     Representation #  3 modes #   3  4

     Self-consistent Calculation

      iter #   1 total cpu time :     5.5 secs   av.it.:   6.0
      thresh= 1.000E-02 alpha_mix =  0.700 |ddv_scf|^2 =  9.105E-07

      iter #   2 total cpu time :     5.7 secs   av.it.:   9.6
      thresh= 9.542E-05 alpha_mix =  0.700 |ddv_scf|^2 =  6.314E-08

      iter #   3 total cpu time :     5.9 secs   av.it.:   9.3
      thresh= 2.513E-05 alpha_mix =  0.700 |ddv_scf|^2 =  6.175E-11

      iter #   4 total cpu time :     6.2 secs   av.it.:   9.3
      thresh= 7.858E-07 alpha_mix =  0.700 |ddv_scf|^2 =  1.148E-12

      iter #   5 total cpu time :     6.4 secs   av.it.:   9.2
      thresh= 1.071E-07 alpha_mix =  0.700 |ddv_scf|^2 =  1.286E-14

      iter #   6 total cpu time :     6.6 secs   av.it.:   9.5
      thresh= 1.134E-08 alpha_mix =  0.700 |ddv_scf|^2 =  6.063E-17

     End of self-consistent calculation

     Convergence has been achieved 


     Representation #  4 modes #   5  6

     Self-consistent Calculation

      iter #   1 total cpu time :     6.8 secs   av.it.:   5.0
      thresh= 1.000E-02 alpha_mix =  0.700 |ddv_scf|^2 =  7.681E-08

      iter #   2 total cpu time :     7.0 secs   av.it.:   9.3
      thresh= 2.772E-05 alpha_mix =  0.700 |ddv_scf|^2 =  3.094E-09

      iter #   3 total cpu time :     7.2 secs   av.it.:   9.1
      thresh= 5.562E-06 alpha_mix =  0.700 |ddv_scf|^2 =  9.177E-11

      iter #   4 total cpu time :     7.5 secs   av.it.:   9.1
      thresh= 9.580E-07 alpha_mix =  0.700 |ddv_scf|^2 =  4.808E-12

      iter #   5 total cpu time :     7.7 secs   av.it.:   8.8
      thresh= 2.193E-07 alpha_mix =  0.700 |ddv_scf|^2 =  7.584E-16

     End of self-consistent calculation

     Convergence has been achieved 
 
     Number of q in the star =    4
     List of q in the star:
          1  -0.250000000   0.250000000  -0.250000000
          2   0.250000000  -0.250000000  -0.250000000
          3  -0.250000000  -0.250000000   0.250000000
          4   0.250000000   0.250000000   0.250000000
     In addition there is the -q list: 
          1   0.250000000  -0.250000000   0.250000000
          2  -0.250000000   0.250000000   0.250000000
          3   0.250000000   0.250000000  -0.250000000
          4  -0.250000000  -0.250000000  -0.250000000

     Diagonalizing the dynamical matrix

     q = (   -0.250000000   0.250000000  -0.250000000 ) 

 **************************************************************************
     freq (    1) =       1.758471 [THz] =      58.656263 [cm-1]
     freq (    2) =       1.758471 [THz] =      58.656263 [cm-1]
     freq (    3) =       4.535274 [THz] =     151.280441 [cm-1]
     freq (    4) =      11.004439 [THz] =     367.068584 [cm-1]
     freq (    5) =      11.004439 [THz] =     367.068584 [cm-1]
     freq (    6) =      12.136599 [THz] =     404.833377 [cm-1]
 **************************************************************************

     Mode symmetry, C_3v (3m)   point group:

     freq (  1 -  2) =         58.7  [cm-1]   --> E    L_3           
     freq (  3 -  3) =        151.3  [cm-1]   --> A_1  L_1           
     freq (  4 -  5) =        367.1  [cm-1]   --> E    L_3           
     freq (  6 -  6) =        404.8  [cm-1]   --> A_1  L_1           

     Calculation of q =    0.5000000  -0.5000000   0.5000000
 
     Parallelization info
     --------------------
     sticks:   dense  smooth     PW     G-vecs:    dense   smooth      PW
     Min          30      30     10                  305      305      66
     Max          31      31     11                  308      308      69
     Sum         241     241     85                 2445     2445     537
 

     Title: 
     Phonons on a uniform q-grid                                                


     bravais-lattice index     =            2
     lattice parameter (alat)  =      10.5000  a.u.
     unit-cell volume          =     289.4062 (a.u.)^3
     number of atoms/cell      =            2
     number of atomic types    =            2
     number of electrons       =         8.00
     number of Kohn-Sham states=            4
     kinetic-energy cutoff     =      16.0000  Ry
     charge density cutoff     =      64.0000  Ry
     Exchange-correlation      = PZ ( 1  1  0  0 0 0)

     celldm(1)=  10.500000  celldm(2)=   0.000000  celldm(3)=   0.000000
     celldm(4)=   0.000000  celldm(5)=   0.000000  celldm(6)=   0.000000

     crystal axes: (cart. coord. in units of alat)
               a(1) = (  -0.500000   0.000000   0.500000 )  
               a(2) = (   0.000000   0.500000   0.500000 )  
               a(3) = (  -0.500000   0.500000   0.000000 )  

     reciprocal axes: (cart. coord. in units 2 pi/alat)
               b(1) = ( -1.000000 -1.000000  1.000000 )  
               b(2) = (  1.000000  1.000000  1.000000 )  
               b(3) = ( -1.000000  1.000000 -1.000000 )  


     PseudoPot. # 1 for Al read from file:
     ./Al.pz-vbc.UPF
     MD5 check sum: 13b59ac2968bcb74bf87a15840bc9960
     Pseudo is Norm-conserving, Zval =  3.0
     Generated by new atomic code, or converted to UPF format
     Using radial grid of  171 points,  2 beta functions with: 
                l(1) =   0
                l(2) =   1

     PseudoPot. # 2 for As read from file:
     ./As.pz-bhs.UPF
     MD5 check sum: d9127a8b584737f42ec2fe47e3acdea8
     Pseudo is Norm-conserving, Zval =  5.0
     Generated by new atomic code, or converted to UPF format
     Using radial grid of  525 points,  2 beta functions with: 
                l(1) =   0
                l(2) =   1

     atomic species   valence    mass     pseudopotential
        Al             3.00    26.98000     Al( 1.00)
        As             5.00    74.92000     As( 1.00)

     24 Sym. Ops. (no inversion) found



   Cartesian axes

     site n.     atom                  positions (alat units)
         1           Al  tau(   1) = (   0.0000000   0.0000000   0.0000000  )
         2           As  tau(   2) = (   0.2500000   0.2500000   0.2500000  )

     number of k points=    10
                       cart. coord. in units 2pi/alat
        k(    1) = (   0.2500000   0.2500000   0.2500000), wk =   0.3750000
        k(    2) = (   0.7500000  -0.2500000   0.7500000), wk =   0.0000000
        k(    3) = (   0.2500000   0.2500000   0.7500000), wk =   0.7500000
        k(    4) = (   0.7500000  -0.2500000   1.2500000), wk =   0.0000000
        k(    5) = (  -0.2500000   0.2500000  -0.2500000), wk =   0.1250000
        k(    6) = (   0.2500000  -0.2500000   0.2500000), wk =   0.0000000
        k(    7) = (  -0.7500000  -0.2500000   0.2500000), wk =   0.3750000
        k(    8) = (  -0.2500000  -0.7500000   0.7500000), wk =   0.0000000
        k(    9) = (  -0.7500000   0.2500000  -0.2500000), wk =   0.3750000
        k(   10) = (  -0.2500000  -0.2500000   0.2500000), wk =   0.0000000

     Dense  grid:     2445 G-vectors     FFT dimensions: (  20,  20,  20)

     Estimated max dynamical RAM per process >       0.37 MB

     Estimated total dynamical RAM >       2.93 MB

     The potential is recalculated from file :
     ./out/_ph0/AlAs.save/charge-density

     Starting wfcs are    8 atomic wfcs

     Band Structure Calculation
     Davidson diagonalization with overlap

     ethr =  1.25E-10,  avg # of iterations = 11.6

     total cpu time spent up to now is        0.4 secs

     End of band structure calculation

          k = 0.2500 0.2500 0.2500 (   311 PWs)   bands (ev):

    -6.3574   1.7036   4.6970   4.6970

          k = 0.7500-0.2500 0.7500 (   311 PWs)   bands (ev):

    -5.1818  -0.0414   2.3126   3.5086

          k = 0.2500 0.2500 0.7500 (   311 PWs)   bands (ev):

    -5.1818  -0.0414   2.3126   3.5086

          k = 0.7500-0.2500 1.2500 (   311 PWs)   bands (ev):

    -5.1818  -0.0414   2.3126   3.5086

          k =-0.2500 0.2500-0.2500 (   311 PWs)   bands (ev):

    -6.3574   1.7036   4.6970   4.6970

          k = 0.2500-0.2500 0.2500 (   311 PWs)   bands (ev):

    -6.3574   1.7036   4.6970   4.6970

          k =-0.7500-0.2500 0.2500 (   311 PWs)   bands (ev):

    -5.1818  -0.0414   2.3126   3.5086

          k =-0.2500-0.7500 0.7500 (   311 PWs)   bands (ev):

    -5.1818  -0.0414   2.3126   3.5086

          k =-0.7500 0.2500-0.2500 (   311 PWs)   bands (ev):

    -5.1818  -0.0414   2.3126   3.5086

          k =-0.2500-0.2500 0.2500 (   311 PWs)   bands (ev):

    -6.3574   1.7036   4.6970   4.6970

     highest occupied level (ev):     4.6970

     Writing output data file AlAs.save/

     Phonons on a uniform q-grid                                                

     bravais-lattice index     =            2
     lattice parameter (alat)  =      10.5000  a.u.
     unit-cell volume          =     289.4062 (a.u.)^3
     number of atoms/cell      =            2
     number of atomic types    =            2
     kinetic-energy cut-off    =      16.0000  Ry
     charge density cut-off    =      64.0000  Ry
     convergence threshold     =      1.0E-14
     beta                      =       0.7000
     number of iterations used =            4
     Exchange-correlation      = PZ ( 1  1  0  0 0 0)


     celldm(1)=   10.50000  celldm(2)=    0.00000  celldm(3)=    0.00000
     celldm(4)=    0.00000  celldm(5)=    0.00000  celldm(6)=    0.00000

     crystal axes: (cart. coord. in units of alat)
               a(1) = ( -0.5000  0.0000  0.5000 )  
               a(2) = (  0.0000  0.5000  0.5000 )  
               a(3) = ( -0.5000  0.5000  0.0000 )  

     reciprocal axes: (cart. coord. in units 2 pi/alat)
               b(1) = ( -1.0000 -1.0000  1.0000 )  
               b(2) = (  1.0000  1.0000  1.0000 )  
               b(3) = ( -1.0000  1.0000 -1.0000 )  


     Atoms inside the unit cell: 

     Cartesian axes

     site n.  atom      mass           positions (alat units)
        1     Al  26.9800   tau(    1) = (    0.00000    0.00000    0.00000  )
        2     As  74.9200   tau(    2) = (    0.25000    0.25000    0.25000  )

     Computing dynamical matrix for 
                    q = (   0.5000000  -0.5000000   0.5000000 )
 
      7 Sym.Ops. (with q -> -q+G )


     G cutoff =  178.7306  (    306 G-vectors)     FFT grid: ( 20, 20, 20)
     number of k points=    10

     PseudoPot. # 1 for Al read from file:
     ./Al.pz-vbc.UPF
     MD5 check sum: 13b59ac2968bcb74bf87a15840bc9960
     Pseudo is Norm-conserving, Zval =  3.0
     Generated by new atomic code, or converted to UPF format
     Using radial grid of  171 points,  2 beta functions with: 
                l(1) =   0
                l(2) =   1

     PseudoPot. # 2 for As read from file:
     ./As.pz-bhs.UPF
     MD5 check sum: d9127a8b584737f42ec2fe47e3acdea8
     Pseudo is Norm-conserving, Zval =  5.0
     Generated by new atomic code, or converted to UPF format
     Using radial grid of  525 points,  2 beta functions with: 
                l(1) =   0
                l(2) =   1

     Mode symmetry, C_3v (3m)   point group:


     Atomic displacements:
     There are   4 irreducible representations

     Representation     1      1 modes -A_1  L_1  To be done

     Representation     2      1 modes -A_1  L_1  To be done

     Representation     3      2 modes -E    L_3  To be done

     Representation     4      2 modes -E    L_3  To be done



     Alpha used in Ewald sum =   0.7000
     PHONON       :      4.81s CPU      7.98s WALL



     Representation #  1 mode #   1

     Self-consistent Calculation

      iter #   1 total cpu time :     8.0 secs   av.it.:   5.4
      thresh= 1.000E-02 alpha_mix =  0.700 |ddv_scf|^2 =  4.028E-05

      iter #   2 total cpu time :     8.1 secs   av.it.:   8.4
      thresh= 6.347E-04 alpha_mix =  0.700 |ddv_scf|^2 =  1.008E-04

      iter #   3 total cpu time :     8.2 secs   av.it.:   7.4
      thresh= 1.004E-03 alpha_mix =  0.700 |ddv_scf|^2 =  4.656E-07

      iter #   4 total cpu time :     8.3 secs   av.it.:   7.8
      thresh= 6.824E-05 alpha_mix =  0.700 |ddv_scf|^2 =  2.769E-09

      iter #   5 total cpu time :     8.3 secs   av.it.:   8.2
      thresh= 5.262E-06 alpha_mix =  0.700 |ddv_scf|^2 =  4.971E-11

      iter #   6 total cpu time :     8.4 secs   av.it.:   8.4
      thresh= 7.050E-07 alpha_mix =  0.700 |ddv_scf|^2 =  8.666E-13

      iter #   7 total cpu time :     8.5 secs   av.it.:   8.4
      thresh= 9.309E-08 alpha_mix =  0.700 |ddv_scf|^2 =  1.618E-14

      iter #   8 total cpu time :     8.6 secs   av.it.:   7.8
      thresh= 1.272E-08 alpha_mix =  0.700 |ddv_scf|^2 =  1.360E-16

     End of self-consistent calculation

     Convergence has been achieved 


     Representation #  2 mode #   2

     Self-consistent Calculation

      iter #   1 total cpu time :     8.7 secs   av.it.:   6.2
      thresh= 1.000E-02 alpha_mix =  0.700 |ddv_scf|^2 =  2.479E-04

      iter #   2 total cpu time :     8.8 secs   av.it.:   8.2
      thresh= 1.575E-03 alpha_mix =  0.700 |ddv_scf|^2 =  7.101E-04

      iter #   3 total cpu time :     8.8 secs   av.it.:   7.4
      thresh= 2.665E-03 alpha_mix =  0.700 |ddv_scf|^2 =  3.713E-08

      iter #   4 total cpu time :     8.9 secs   av.it.:   8.4
      thresh= 1.927E-05 alpha_mix =  0.700 |ddv_scf|^2 =  5.780E-09

      iter #   5 total cpu time :     9.0 secs   av.it.:   7.4
      thresh= 7.603E-06 alpha_mix =  0.700 |ddv_scf|^2 =  3.114E-11

      iter #   6 total cpu time :     9.1 secs   av.it.:   8.4
      thresh= 5.581E-07 alpha_mix =  0.700 |ddv_scf|^2 =  3.223E-12

      iter #   7 total cpu time :     9.2 secs   av.it.:   8.2
      thresh= 1.795E-07 alpha_mix =  0.700 |ddv_scf|^2 =  7.084E-15

     End of self-consistent calculation

     Convergence has been achieved 


     Representation #  3 modes #   3  4

     Self-consistent Calculation

      iter #   1 total cpu time :     9.3 secs   av.it.:   6.0
      thresh= 1.000E-02 alpha_mix =  0.700 |ddv_scf|^2 =  1.069E-06

      iter #   2 total cpu time :     9.4 secs   av.it.:   9.5
      thresh= 1.034E-04 alpha_mix =  0.700 |ddv_scf|^2 =  9.049E-08

      iter #   3 total cpu time :     9.6 secs   av.it.:   9.1
      thresh= 3.008E-05 alpha_mix =  0.700 |ddv_scf|^2 =  6.221E-11

      iter #   4 total cpu time :     9.7 secs   av.it.:   9.2
      thresh= 7.888E-07 alpha_mix =  0.700 |ddv_scf|^2 =  4.862E-13

      iter #   5 total cpu time :     9.8 secs   av.it.:   9.1
      thresh= 6.972E-08 alpha_mix =  0.700 |ddv_scf|^2 =  9.809E-15

     End of self-consistent calculation

     Convergence has been achieved 


     Representation #  4 modes #   5  6

     Self-consistent Calculation

      iter #   1 total cpu time :    10.0 secs   av.it.:   4.8
      thresh= 1.000E-02 alpha_mix =  0.700 |ddv_scf|^2 =  1.028E-07

      iter #   2 total cpu time :    10.1 secs   av.it.:   9.5
      thresh= 3.206E-05 alpha_mix =  0.700 |ddv_scf|^2 =  6.134E-09

      iter #   3 total cpu time :    10.2 secs   av.it.:   9.2
      thresh= 7.832E-06 alpha_mix =  0.700 |ddv_scf|^2 =  1.020E-10

      iter #   4 total cpu time :    10.4 secs   av.it.:   9.2
      thresh= 1.010E-06 alpha_mix =  0.700 |ddv_scf|^2 =  5.219E-12

      iter #   5 total cpu time :    10.5 secs   av.it.:   8.7
      thresh= 2.285E-07 alpha_mix =  0.700 |ddv_scf|^2 =  1.874E-15

     End of self-consistent calculation

     Convergence has been achieved 
 
     Number of q in the star =    4
     List of q in the star:
          1   0.500000000  -0.500000000   0.500000000
          2  -0.500000000   0.500000000   0.500000000
          3   0.500000000   0.500000000  -0.500000000
          4  -0.500000000  -0.500000000  -0.500000000

     Diagonalizing the dynamical matrix

     q = (    0.500000000  -0.500000000   0.500000000 ) 

 **************************************************************************
     freq (    1) =       2.017504 [THz] =      67.296685 [cm-1]
     freq (    2) =       2.017504 [THz] =      67.296685 [cm-1]
     freq (    3) =       6.495357 [THz] =     216.661777 [cm-1]
     freq (    4) =      10.940920 [THz] =     364.949804 [cm-1]
     freq (    5) =      10.940920 [THz] =     364.949804 [cm-1]
     freq (    6) =      11.550631 [THz] =     385.287590 [cm-1]
 **************************************************************************

     Mode symmetry, C_3v (3m)   point group:

     freq (  1 -  2) =         67.3  [cm-1]   --> E    L_3           
     freq (  3 -  3) =        216.7  [cm-1]   --> A_1  L_1           
     freq (  4 -  5) =        364.9  [cm-1]   --> E    L_3           
     freq (  6 -  6) =        385.3  [cm-1]   --> A_1  L_1           

     Calculation of q =    0.0000000   0.5000000   0.0000000
 
     Parallelization info
     --------------------
     sticks:   dense  smooth     PW     G-vecs:    dense   smooth      PW
     Min          30      30     10                  305      305      65
     Max          31      31     11                  308      308      68
     Sum         241     241     85                 2445     2445     531
 

     Title: 
     Phonons on a uniform q-grid                                                


     bravais-lattice index     =            2
     lattice parameter (alat)  =      10.5000  a.u.
     unit-cell volume          =     289.4062 (a.u.)^3
     number of atoms/cell      =            2
     number of atomic types    =            2
     number of electrons       =         8.00
     number of Kohn-Sham states=            4
     kinetic-energy cutoff     =      16.0000  Ry
     charge density cutoff     =      64.0000  Ry
     Exchange-correlation      = PZ ( 1  1  0  0 0 0)

     celldm(1)=  10.500000  celldm(2)=   0.000000  celldm(3)=   0.000000
     celldm(4)=   0.000000  celldm(5)=   0.000000  celldm(6)=   0.000000

     crystal axes: (cart. coord. in units of alat)
               a(1) = (  -0.500000   0.000000   0.500000 )  
               a(2) = (   0.000000   0.500000   0.500000 )  
               a(3) = (  -0.500000   0.500000   0.000000 )  

     reciprocal axes: (cart. coord. in units 2 pi/alat)
               b(1) = ( -1.000000 -1.000000  1.000000 )  
               b(2) = (  1.000000  1.000000  1.000000 )  
               b(3) = ( -1.000000  1.000000 -1.000000 )  


     PseudoPot. # 1 for Al read from file:
     ./Al.pz-vbc.UPF
     MD5 check sum: 13b59ac2968bcb74bf87a15840bc9960
     Pseudo is Norm-conserving, Zval =  3.0
     Generated by new atomic code, or converted to UPF format
     Using radial grid of  171 points,  2 beta functions with: 
                l(1) =   0
                l(2) =   1

     PseudoPot. # 2 for As read from file:
     ./As.pz-bhs.UPF
     MD5 check sum: d9127a8b584737f42ec2fe47e3acdea8
     Pseudo is Norm-conserving, Zval =  5.0
     Generated by new atomic code, or converted to UPF format
     Using radial grid of  525 points,  2 beta functions with: 
                l(1) =   0
                l(2) =   1

     atomic species   valence    mass     pseudopotential
        Al             3.00    26.98000     Al( 1.00)
        As             5.00    74.92000     As( 1.00)

     24 Sym. Ops. (no inversion) found



   Cartesian axes

     site n.     atom                  positions (alat units)
         1           Al  tau(   1) = (   0.0000000   0.0000000   0.0000000  )
         2           As  tau(   2) = (   0.2500000   0.2500000   0.2500000  )

     number of k points=    24
                       cart. coord. in units 2pi/alat
        k(    1) = (   0.2500000   0.2500000   0.2500000), wk =   0.1250000
        k(    2) = (   0.2500000   0.7500000   0.2500000), wk =   0.0000000
        k(    3) = (   0.2500000   0.2500000   0.7500000), wk =   0.2500000
        k(    4) = (   0.2500000   0.7500000   0.7500000), wk =   0.0000000
        k(    5) = (  -0.2500000  -0.2500000   0.2500000), wk =   0.1250000
        k(    6) = (  -0.2500000   0.2500000   0.2500000), wk =   0.0000000
        k(    7) = (  -0.2500000  -0.2500000  -0.2500000), wk =   0.1250000
        k(    8) = (  -0.2500000   0.2500000  -0.2500000), wk =   0.0000000
        k(    9) = (   0.2500000   0.2500000  -0.2500000), wk =   0.1250000
        k(   10) = (   0.2500000   0.7500000  -0.2500000), wk =   0.0000000
        k(   11) = (  -0.2500000  -0.2500000   0.7500000), wk =   0.2500000
        k(   12) = (  -0.2500000   0.2500000   0.7500000), wk =   0.0000000
        k(   13) = (  -0.2500000  -0.7500000   0.2500000), wk =   0.1250000
        k(   14) = (  -0.2500000  -0.2500000   0.2500000), wk =   0.0000000
        k(   15) = (  -0.2500000   0.7500000  -0.2500000), wk =   0.1250000
        k(   16) = (  -0.2500000   1.2500000  -0.2500000), wk =   0.0000000
        k(   17) = (  -0.2500000  -0.2500000  -0.7500000), wk =   0.2500000
        k(   18) = (  -0.2500000   0.2500000  -0.7500000), wk =   0.0000000
        k(   19) = (   0.2500000   0.2500000  -0.7500000), wk =   0.2500000
        k(   20) = (   0.2500000   0.7500000  -0.7500000), wk =   0.0000000
        k(   21) = (  -0.2500000   0.7500000   0.2500000), wk =   0.1250000
        k(   22) = (  -0.2500000   1.2500000   0.2500000), wk =   0.0000000
        k(   23) = (  -0.2500000  -0.7500000  -0.2500000), wk =   0.1250000
        k(   24) = (  -0.2500000  -0.2500000  -0.2500000), wk =   0.0000000

     Dense  grid:     2445 G-vectors     FFT dimensions: (  20,  20,  20)

     Estimated max dynamical RAM per process >       0.36 MB

     Estimated total dynamical RAM >       2.88 MB

     The potential is recalculated from file :
     ./out/_ph0/AlAs.save/charge-density

     Starting wfcs are    8 atomic wfcs

     Band Structure Calculation
     Davidson diagonalization with overlap

     ethr =  1.25E-10,  avg # of iterations = 11.7

     total cpu time spent up to now is        0.8 secs

     End of band structure calculation

          k = 0.2500 0.2500 0.2500 (   311 PWs)   bands (ev):

    -6.3574   1.7036   4.6970   4.6970

          k = 0.2500 0.7500 0.2500 (   311 PWs)   bands (ev):

    -5.1818  -0.0414   2.3126   3.5086

          k = 0.2500 0.2500 0.7500 (   311 PWs)   bands (ev):

    -5.1818  -0.0414   2.3126   3.5086

          k = 0.2500 0.7500 0.7500 (   311 PWs)   bands (ev):

    -5.1818  -0.0414   2.3126   3.5086

          k =-0.2500-0.2500 0.2500 (   311 PWs)   bands (ev):

    -6.3574   1.7036   4.6970   4.6970

          k =-0.2500 0.2500 0.2500 (   311 PWs)   bands (ev):

    -6.3574   1.7036   4.6970   4.6970

          k =-0.2500-0.2500-0.2500 (   311 PWs)   bands (ev):

    -6.3574   1.7036   4.6970   4.6970

          k =-0.2500 0.2500-0.2500 (   311 PWs)   bands (ev):

    -6.3574   1.7036   4.6970   4.6970

          k = 0.2500 0.2500-0.2500 (   311 PWs)   bands (ev):

    -6.3574   1.7036   4.6970   4.6970

          k = 0.2500 0.7500-0.2500 (   311 PWs)   bands (ev):

    -5.1818  -0.0414   2.3126   3.5086

          k =-0.2500-0.2500 0.7500 (   311 PWs)   bands (ev):

    -5.1818  -0.0414   2.3126   3.5086

          k =-0.2500 0.2500 0.7500 (   311 PWs)   bands (ev):

    -5.1818  -0.0414   2.3126   3.5086

          k =-0.2500-0.7500 0.2500 (   311 PWs)   bands (ev):

    -5.1818  -0.0414   2.3126   3.5086

          k =-0.2500-0.2500 0.2500 (   311 PWs)   bands (ev):

    -6.3574   1.7036   4.6970   4.6970

          k =-0.2500 0.7500-0.2500 (   311 PWs)   bands (ev):

    -5.1818  -0.0414   2.3126   3.5086

          k =-0.2500 1.2500-0.2500 (   311 PWs)   bands (ev):

    -5.1818  -0.0414   2.3126   3.5086

          k =-0.2500-0.2500-0.7500 (   311 PWs)   bands (ev):

    -5.1818  -0.0414   2.3126   3.5086

          k =-0.2500 0.2500-0.7500 (   311 PWs)   bands (ev):

    -5.1818  -0.0414   2.3126   3.5086

          k = 0.2500 0.2500-0.7500 (   311 PWs)   bands (ev):

    -5.1818  -0.0414   2.3126   3.5086

          k = 0.2500 0.7500-0.7500 (   311 PWs)   bands (ev):

    -5.1818  -0.0414   2.3126   3.5086

          k =-0.2500 0.7500 0.2500 (   311 PWs)   bands (ev):

    -5.1818  -0.0414   2.3126   3.5086

          k =-0.2500 1.2500 0.2500 (   311 PWs)   bands (ev):

    -5.1818  -0.0414   2.3126   3.5086

          k =-0.2500-0.7500-0.2500 (   311 PWs)   bands (ev):

    -5.1818  -0.0414   2.3126   3.5086

          k =-0.2500-0.2500-0.2500 (   311 PWs)   bands (ev):

    -6.3574   1.7036   4.6970   4.6970

     highest occupied level (ev):     4.6970

     Writing output data file AlAs.save/

     Phonons on a uniform q-grid                                                

     bravais-lattice index     =            2
     lattice parameter (alat)  =      10.5000  a.u.
     unit-cell volume          =     289.4062 (a.u.)^3
     number of atoms/cell      =            2
     number of atomic types    =            2
     kinetic-energy cut-off    =      16.0000  Ry
     charge density cut-off    =      64.0000  Ry
     convergence threshold     =      1.0E-14
     beta                      =       0.7000
     number of iterations used =            4
     Exchange-correlation      = PZ ( 1  1  0  0 0 0)


     celldm(1)=   10.50000  celldm(2)=    0.00000  celldm(3)=    0.00000
     celldm(4)=    0.00000  celldm(5)=    0.00000  celldm(6)=    0.00000

     crystal axes: (cart. coord. in units of alat)
               a(1) = ( -0.5000  0.0000  0.5000 )  
               a(2) = (  0.0000  0.5000  0.5000 )  
               a(3) = ( -0.5000  0.5000  0.0000 )  

     reciprocal axes: (cart. coord. in units 2 pi/alat)
               b(1) = ( -1.0000 -1.0000  1.0000 )  
               b(2) = (  1.0000  1.0000  1.0000 )  
               b(3) = ( -1.0000  1.0000 -1.0000 )  


     Atoms inside the unit cell: 

     Cartesian axes

     site n.  atom      mass           positions (alat units)
        1     Al  26.9800   tau(    1) = (    0.00000    0.00000    0.00000  )
        2     As  74.9200   tau(    2) = (    0.25000    0.25000    0.25000  )

     Computing dynamical matrix for 
                    q = (   0.0000000   0.5000000   0.0000000 )
 
      4 Sym.Ops. (no q -> -q+G )


     G cutoff =  178.7306  (    306 G-vectors)     FFT grid: ( 20, 20, 20)
     number of k points=    24

     PseudoPot. # 1 for Al read from file:
     ./Al.pz-vbc.UPF
     MD5 check sum: 13b59ac2968bcb74bf87a15840bc9960
     Pseudo is Norm-conserving, Zval =  3.0
     Generated by new atomic code, or converted to UPF format
     Using radial grid of  171 points,  2 beta functions with: 
                l(1) =   0
                l(2) =   1

     PseudoPot. # 2 for As read from file:
     ./As.pz-bhs.UPF
     MD5 check sum: d9127a8b584737f42ec2fe47e3acdea8
     Pseudo is Norm-conserving, Zval =  5.0
     Generated by new atomic code, or converted to UPF format
     Using radial grid of  525 points,  2 beta functions with: 
                l(1) =   0
                l(2) =   1

     Mode symmetry, C_2v (mm2)  point group:


     Atomic displacements:
     There are   6 irreducible representations

     Representation     1      1 modes -A_1  D_1  S_1  To be done

     Representation     2      1 modes -A_1  D_1  S_1  To be done

     Representation     3      1 modes -B_1  D_3  S_3  To be done

     Representation     4      1 modes -B_1  D_3  S_3  To be done

     Representation     5      1 modes -B_2  D_4  S_4  To be done

     Representation     6      1 modes -B_2  D_4  S_4  To be done



     Alpha used in Ewald sum =   0.7000
     PHONON       :      6.53s CPU     11.01s WALL



     Representation #  1 mode #   1

     Self-consistent Calculation

      iter #   1 total cpu time :    11.1 secs   av.it.:   6.5
      thresh= 1.000E-02 alpha_mix =  0.700 |ddv_scf|^2 =  1.333E-03

      iter #   2 total cpu time :    11.2 secs   av.it.:   8.0
      thresh= 3.651E-03 alpha_mix =  0.700 |ddv_scf|^2 =  1.109E-02

      iter #   3 total cpu time :    11.3 secs   av.it.:   7.1
      thresh= 1.000E-02 alpha_mix =  0.700 |ddv_scf|^2 =  1.465E-06

      iter #   4 total cpu time :    11.5 secs   av.it.:   8.3
      thresh= 1.210E-04 alpha_mix =  0.700 |ddv_scf|^2 =  1.770E-08

      iter #   5 total cpu time :    11.6 secs   av.it.:   8.8
      thresh= 1.330E-05 alpha_mix =  0.700 |ddv_scf|^2 =  4.529E-11

      iter #   6 total cpu time :    11.7 secs   av.it.:   8.3
      thresh= 6.729E-07 alpha_mix =  0.700 |ddv_scf|^2 =  1.803E-11

      iter #   7 total cpu time :    11.9 secs   av.it.:   7.8
      thresh= 4.246E-07 alpha_mix =  0.700 |ddv_scf|^2 =  8.248E-14

      iter #   8 total cpu time :    12.0 secs   av.it.:   7.7
      thresh= 2.872E-08 alpha_mix =  0.700 |ddv_scf|^2 =  8.783E-14

      iter #   9 total cpu time :    12.1 secs   av.it.:   7.2
      thresh= 2.964E-08 alpha_mix =  0.700 |ddv_scf|^2 =  1.685E-15

     End of self-consistent calculation

     Convergence has been achieved 


     Representation #  2 mode #   2

     Self-consistent Calculation

      iter #   1 total cpu time :    12.3 secs   av.it.:   5.7
      thresh= 1.000E-02 alpha_mix =  0.700 |ddv_scf|^2 =  2.607E-04

      iter #   2 total cpu time :    12.4 secs   av.it.:   8.0
      thresh= 1.615E-03 alpha_mix =  0.700 |ddv_scf|^2 =  2.022E-03

      iter #   3 total cpu time :    12.5 secs   av.it.:   7.0
      thresh= 4.497E-03 alpha_mix =  0.700 |ddv_scf|^2 =  3.879E-07

      iter #   4 total cpu time :    12.7 secs   av.it.:   8.0
      thresh= 6.228E-05 alpha_mix =  0.700 |ddv_scf|^2 =  4.094E-09

      iter #   5 total cpu time :    12.8 secs   av.it.:   8.8
      thresh= 6.399E-06 alpha_mix =  0.700 |ddv_scf|^2 =  3.727E-11

      iter #   6 total cpu time :    12.9 secs   av.it.:   8.4
      thresh= 6.105E-07 alpha_mix =  0.700 |ddv_scf|^2 =  1.571E-11

      iter #   7 total cpu time :    13.1 secs   av.it.:   7.8
      thresh= 3.964E-07 alpha_mix =  0.700 |ddv_scf|^2 =  2.972E-11

      iter #   8 total cpu time :    13.2 secs   av.it.:   7.2
      thresh= 5.452E-07 alpha_mix =  0.700 |ddv_scf|^2 =  8.825E-15

     End of self-consistent calculation

     Convergence has been achieved 


     Representation #  3 mode #   3

     Self-consistent Calculation

      iter #   1 total cpu time :    13.3 secs   av.it.:   4.9
      thresh= 1.000E-02 alpha_mix =  0.700 |ddv_scf|^2 =  7.602E-07

      iter #   2 total cpu time :    13.5 secs   av.it.:   8.4
      thresh= 8.719E-05 alpha_mix =  0.700 |ddv_scf|^2 =  8.756E-08

      iter #   3 total cpu time :    13.6 secs   av.it.:   8.3
      thresh= 2.959E-05 alpha_mix =  0.700 |ddv_scf|^2 =  4.588E-10

      iter #   4 total cpu time :    13.7 secs   av.it.:   8.1
      thresh= 2.142E-06 alpha_mix =  0.700 |ddv_scf|^2 =  1.469E-11

      iter #   5 total cpu time :    13.9 secs   av.it.:   7.8
      thresh= 3.833E-07 alpha_mix =  0.700 |ddv_scf|^2 =  2.649E-15

     End of self-consistent calculation

     Convergence has been achieved 


     Representation #  4 mode #   4

     Self-consistent Calculation

      iter #   1 total cpu time :    14.0 secs   av.it.:   5.8
      thresh= 1.000E-02 alpha_mix =  0.700 |ddv_scf|^2 =  6.087E-06

      iter #   2 total cpu time :    14.1 secs   av.it.:   8.4
      thresh= 2.467E-04 alpha_mix =  0.700 |ddv_scf|^2 =  8.187E-07

      iter #   3 total cpu time :    14.3 secs   av.it.:   8.3
      thresh= 9.048E-05 alpha_mix =  0.700 |ddv_scf|^2 =  2.677E-10

      iter #   4 total cpu time :    14.4 secs   av.it.:   8.0
      thresh= 1.636E-06 alpha_mix =  0.700 |ddv_scf|^2 =  1.059E-11

      iter #   5 total cpu time :    14.5 secs   av.it.:   8.3
      thresh= 3.255E-07 alpha_mix =  0.700 |ddv_scf|^2 =  4.598E-14

      iter #   6 total cpu time :    14.7 secs   av.it.:   8.7
      thresh= 2.144E-08 alpha_mix =  0.700 |ddv_scf|^2 =  1.629E-16

     End of self-consistent calculation

     Convergence has been achieved 


     Representation #  5 mode #   5

     Self-consistent Calculation

      iter #   1 total cpu time :    14.8 secs   av.it.:   5.8
      thresh= 1.000E-02 alpha_mix =  0.700 |ddv_scf|^2 =  6.088E-06

      iter #   2 total cpu time :    15.0 secs   av.it.:   8.4
      thresh= 2.467E-04 alpha_mix =  0.700 |ddv_scf|^2 =  8.189E-07

      iter #   3 total cpu time :    15.1 secs   av.it.:   8.2
      thresh= 9.050E-05 alpha_mix =  0.700 |ddv_scf|^2 =  2.673E-10

      iter #   4 total cpu time :    15.2 secs   av.it.:   8.0
      thresh= 1.635E-06 alpha_mix =  0.700 |ddv_scf|^2 =  1.058E-11

      iter #   5 total cpu time :    15.3 secs   av.it.:   8.4
      thresh= 3.253E-07 alpha_mix =  0.700 |ddv_scf|^2 =  4.586E-14

      iter #   6 total cpu time :    15.5 secs   av.it.:   8.7
      thresh= 2.142E-08 alpha_mix =  0.700 |ddv_scf|^2 =  1.595E-16

     End of self-consistent calculation

     Convergence has been achieved 


     Representation #  6 mode #   6

     Self-consistent Calculation

      iter #   1 total cpu time :    15.6 secs   av.it.:   4.9
      thresh= 1.000E-02 alpha_mix =  0.700 |ddv_scf|^2 =  7.603E-07

      iter #   2 total cpu time :    15.7 secs   av.it.:   8.4
      thresh= 8.719E-05 alpha_mix =  0.700 |ddv_scf|^2 =  8.763E-08

      iter #   3 total cpu time :    15.9 secs   av.it.:   8.3
      thresh= 2.960E-05 alpha_mix =  0.700 |ddv_scf|^2 =  4.580E-10

      iter #   4 total cpu time :    16.0 secs   av.it.:   8.0
      thresh= 2.140E-06 alpha_mix =  0.700 |ddv_scf|^2 =  1.468E-11

      iter #   5 total cpu time :    16.1 secs   av.it.:   7.9
      thresh= 3.832E-07 alpha_mix =  0.700 |ddv_scf|^2 =  2.601E-15

     End of self-consistent calculation

     Convergence has been achieved 
 
     Number of q in the star =    6
     List of q in the star:
          1   0.000000000   0.500000000   0.000000000
          2  -0.500000000   0.000000000   0.000000000
          3   0.000000000  -0.500000000   0.000000000
          4   0.000000000   0.000000000   0.500000000
          5   0.000000000   0.000000000  -0.500000000
          6   0.500000000   0.000000000   0.000000000

     Diagonalizing the dynamical matrix

     q = (    0.000000000   0.500000000   0.000000000 ) 

 **************************************************************************
     freq (    1) =       2.419135 [THz] =      80.693644 [cm-1]
     freq (    2) =       2.419135 [THz] =      80.693644 [cm-1]
     freq (    3) =       4.607029 [THz] =     153.673940 [cm-1]
     freq (    4) =      10.666260 [THz] =     355.788141 [cm-1]
     freq (    5) =      10.666260 [THz] =     355.788141 [cm-1]
     freq (    6) =      12.371010 [THz] =     412.652460 [cm-1]
 **************************************************************************

     Mode symmetry, C_2v (mm2)  point group:

     freq (  1 -  1) =         80.7  [cm-1]   --> B_1  D_3  S_3      
     freq (  2 -  2) =         80.7  [cm-1]   --> B_2  D_4  S_4      
     freq (  3 -  3) =        153.7  [cm-1]   --> A_1  D_1  S_1      
     freq (  4 -  4) =        355.8  [cm-1]   --> B_1  D_3  S_3      
     freq (  5 -  5) =        355.8  [cm-1]   --> B_2  D_4  S_4      
     freq (  6 -  6) =        412.7  [cm-1]   --> A_1  D_1  S_1      

     Calculation of q =    0.7500000  -0.2500000   0.7500000
 
     Parallelization info
     --------------------
     sticks:   dense  smooth     PW     G-vecs:    dense   smooth      PW
     Min          30      30     12                  305      305      80
     Max          31      31     13                  308      308      81
     Sum         241     241     97                 2445     2445     645
 

     Title: 
     Phonons on a uniform q-grid                                                


     bravais-lattice index     =            2
     lattice parameter (alat)  =      10.5000  a.u.
     unit-cell volume          =     289.4062 (a.u.)^3
     number of atoms/cell      =            2
     number of atomic types    =            2
     number of electrons       =         8.00
     number of Kohn-Sham states=            4
     kinetic-energy cutoff     =      16.0000  Ry
     charge density cutoff     =      64.0000  Ry
     Exchange-correlation      = PZ ( 1  1  0  0 0 0)

     celldm(1)=  10.500000  celldm(2)=   0.000000  celldm(3)=   0.000000
     celldm(4)=   0.000000  celldm(5)=   0.000000  celldm(6)=   0.000000

     crystal axes: (cart. coord. in units of alat)
               a(1) = (  -0.500000   0.000000   0.500000 )  
               a(2) = (   0.000000   0.500000   0.500000 )  
               a(3) = (  -0.500000   0.500000   0.000000 )  

     reciprocal axes: (cart. coord. in units 2 pi/alat)
               b(1) = ( -1.000000 -1.000000  1.000000 )  
               b(2) = (  1.000000  1.000000  1.000000 )  
               b(3) = ( -1.000000  1.000000 -1.000000 )  


     PseudoPot. # 1 for Al read from file:
     ./Al.pz-vbc.UPF
     MD5 check sum: 13b59ac2968bcb74bf87a15840bc9960
     Pseudo is Norm-conserving, Zval =  3.0
     Generated by new atomic code, or converted to UPF format
     Using radial grid of  171 points,  2 beta functions with: 
                l(1) =   0
                l(2) =   1

     PseudoPot. # 2 for As read from file:
     ./As.pz-bhs.UPF
     MD5 check sum: d9127a8b584737f42ec2fe47e3acdea8
     Pseudo is Norm-conserving, Zval =  5.0
     Generated by new atomic code, or converted to UPF format
     Using radial grid of  525 points,  2 beta functions with: 
                l(1) =   0
                l(2) =   1

     atomic species   valence    mass     pseudopotential
        Al             3.00    26.98000     Al( 1.00)
        As             5.00    74.92000     As( 1.00)

     24 Sym. Ops. (no inversion) found



   Cartesian axes

     site n.     atom                  positions (alat units)
         1           Al  tau(   1) = (   0.0000000   0.0000000   0.0000000  )
         2           As  tau(   2) = (   0.2500000   0.2500000   0.2500000  )

     number of k points=    40
                       cart. coord. in units 2pi/alat
        k(    1) = (   0.2500000   0.2500000   0.2500000), wk =   0.0625000
        k(    2) = (   1.0000000   0.0000000   1.0000000), wk =   0.0000000
        k(    3) = (   0.2500000   0.2500000   0.7500000), wk =   0.1250000
        k(    4) = (   1.0000000   0.0000000   1.5000000), wk =   0.0000000
        k(    5) = (  -0.2500000   0.2500000  -0.2500000), wk =   0.0625000
        k(    6) = (   0.5000000   0.0000000   0.5000000), wk =   0.0000000
        k(    7) = (  -0.2500000  -0.2500000   0.2500000), wk =   0.1250000
        k(    8) = (   0.5000000  -0.5000000   1.0000000), wk =   0.0000000
        k(    9) = (  -0.2500000  -0.2500000  -0.2500000), wk =   0.0625000
        k(   10) = (   0.5000000  -0.5000000   0.5000000), wk =   0.0000000
        k(   11) = (   0.2500000   0.2500000  -0.2500000), wk =   0.1250000
        k(   12) = (   1.0000000   0.0000000   0.5000000), wk =   0.0000000
        k(   13) = (   0.2500000  -0.2500000   0.2500000), wk =   0.0625000
        k(   14) = (   1.0000000  -0.5000000   1.0000000), wk =   0.0000000
        k(   15) = (  -0.2500000   0.2500000  -0.7500000), wk =   0.1250000
        k(   16) = (   0.5000000   0.0000000   0.0000000), wk =   0.0000000
        k(   17) = (  -0.2500000  -0.2500000   0.7500000), wk =   0.1250000
        k(   18) = (   0.5000000  -0.5000000   1.5000000), wk =   0.0000000
        k(   19) = (  -0.2500000  -0.7500000   0.2500000), wk =   0.1250000
        k(   20) = (   0.5000000  -1.0000000   1.0000000), wk =   0.0000000
        k(   21) = (  -0.7500000  -0.2500000   0.2500000), wk =   0.1250000
        k(   22) = (   0.0000000  -0.5000000   1.0000000), wk =   0.0000000
        k(   23) = (  -0.2500000   0.7500000  -0.2500000), wk =   0.0625000
        k(   24) = (   0.5000000   0.5000000   0.5000000), wk =   0.0000000
        k(   25) = (   0.2500000   0.7500000   0.2500000), wk =   0.0625000
        k(   26) = (   1.0000000   0.5000000   1.0000000), wk =   0.0000000
        k(   27) = (  -0.2500000  -0.2500000  -0.7500000), wk =   0.1250000
        k(   28) = (   0.5000000  -0.5000000   0.0000000), wk =   0.0000000
        k(   29) = (   0.2500000   0.2500000  -0.7500000), wk =   0.1250000
        k(   30) = (   1.0000000   0.0000000   0.0000000), wk =   0.0000000
        k(   31) = (   0.2500000  -0.2500000   0.7500000), wk =   0.1250000
        k(   32) = (   1.0000000  -0.5000000   1.5000000), wk =   0.0000000
        k(   33) = (  -0.2500000   0.2500000   0.7500000), wk =   0.1250000
        k(   34) = (   0.5000000   0.0000000   1.5000000), wk =   0.0000000
        k(   35) = (  -0.2500000   0.7500000   0.2500000), wk =   0.1250000
        k(   36) = (   0.5000000   0.5000000   1.0000000), wk =   0.0000000
        k(   37) = (  -0.2500000  -0.7500000  -0.2500000), wk =   0.0625000
        k(   38) = (   0.5000000  -1.0000000   0.5000000), wk =   0.0000000
        k(   39) = (   0.2500000  -0.7500000   0.2500000), wk =   0.0625000
        k(   40) = (   1.0000000  -1.0000000   1.0000000), wk =   0.0000000

     Dense  grid:     2445 G-vectors     FFT dimensions: (  20,  20,  20)

     Estimated max dynamical RAM per process >       0.37 MB

     Estimated total dynamical RAM >       2.95 MB

     The potential is recalculated from file :
     ./out/_ph0/AlAs.save/charge-density

     Starting wfcs are    8 atomic wfcs

     Band Structure Calculation
     Davidson diagonalization with overlap

     ethr =  1.25E-10,  avg # of iterations = 11.0

     total cpu time spent up to now is        1.2 secs

     End of band structure calculation

          k = 0.2500 0.2500 0.2500 (   311 PWs)   bands (ev):

    -6.3574   1.7036   4.6970   4.6970

          k = 1.0000 0.0000 1.0000 (   302 PWs)   bands (ev):

    -4.8215  -0.4470   2.9274   2.9274

          k = 0.2500 0.2500 0.7500 (   311 PWs)   bands (ev):

    -5.1818  -0.0414   2.3126   3.5086

          k = 1.0000 0.0000 1.5000 (   308 PWs)   bands (ev):

    -4.7851  -0.0517   1.7950   2.1910

          k =-0.2500 0.2500-0.2500 (   311 PWs)   bands (ev):

    -6.3574   1.7036   4.6970   4.6970

          k = 0.5000 0.0000 0.5000 (   315 PWs)   bands (ev):

    -5.5286   0.5005   2.1485   4.2664

          k =-0.2500-0.2500 0.2500 (   311 PWs)   bands (ev):

    -6.3574   1.7036   4.6970   4.6970

          k = 0.5000-0.5000 1.0000 (   315 PWs)   bands (ev):

    -5.5286   0.5005   2.1485   4.2664

          k =-0.2500-0.2500-0.2500 (   311 PWs)   bands (ev):

    -6.3574   1.7036   4.6970   4.6970

          k = 0.5000-0.5000 0.5000 (   302 PWs)   bands (ev):

    -5.4217  -0.6402   4.3484   4.3484

          k = 0.2500 0.2500-0.2500 (   311 PWs)   bands (ev):

    -6.3574   1.7036   4.6970   4.6970

          k = 1.0000 0.0000 0.5000 (   308 PWs)   bands (ev):

    -4.7851  -0.0517   1.7950   2.1910

          k = 0.2500-0.2500 0.2500 (   311 PWs)   bands (ev):

    -6.3574   1.7036   4.6970   4.6970

          k = 1.0000-0.5000 1.0000 (   311 PWs)   bands (ev):

    -6.1429   1.9397   3.7848   3.7848

          k =-0.2500 0.2500-0.7500 (   311 PWs)   bands (ev):

    -5.1818  -0.0414   2.3126   3.5086

          k = 0.5000 0.0000 0.0000 (   311 PWs)   bands (ev):

    -6.1429   1.9397   3.7848   3.7848

          k =-0.2500-0.2500 0.7500 (   311 PWs)   bands (ev):

    -5.1818  -0.0414   2.3126   3.5086

          k = 0.5000-0.5000 1.5000 (   302 PWs)   bands (ev):

    -5.4217  -0.6402   4.3484   4.3484

          k =-0.2500-0.7500 0.2500 (   311 PWs)   bands (ev):

    -5.1818  -0.0414   2.3126   3.5086

          k = 0.5000-1.0000 1.0000 (   311 PWs)   bands (ev):

    -6.1429   1.9397   3.7848   3.7848

          k =-0.7500-0.2500 0.2500 (   311 PWs)   bands (ev):

    -5.1818  -0.0414   2.3126   3.5086

          k = 0.0000-0.5000 1.0000 (   308 PWs)   bands (ev):

    -4.7851  -0.0517   1.7950   2.1910

          k =-0.2500 0.7500-0.2500 (   311 PWs)   bands (ev):

    -5.1818  -0.0414   2.3126   3.5086

          k = 0.5000 0.5000 0.5000 (   302 PWs)   bands (ev):

    -5.4217  -0.6402   4.3484   4.3484

          k = 0.2500 0.7500 0.2500 (   311 PWs)   bands (ev):

    -5.1818  -0.0414   2.3126   3.5086

          k = 1.0000 0.5000 1.0000 (   311 PWs)   bands (ev):

    -6.1429   1.9397   3.7848   3.7848

          k =-0.2500-0.2500-0.7500 (   311 PWs)   bands (ev):

    -5.1818  -0.0414   2.3126   3.5086

          k = 0.5000-0.5000 0.0000 (   315 PWs)   bands (ev):

    -5.5286   0.5005   2.1485   4.2664

          k = 0.2500 0.2500-0.7500 (   311 PWs)   bands (ev):

    -5.1818  -0.0414   2.3126   3.5086

          k = 1.0000 0.0000 0.0000 (   302 PWs)   bands (ev):

    -4.8215  -0.4470   2.9274   2.9274

          k = 0.2500-0.2500 0.7500 (   311 PWs)   bands (ev):

    -5.1818  -0.0414   2.3126   3.5086

          k = 1.0000-0.5000 1.5000 (   315 PWs)   bands (ev):

    -5.5286   0.5005   2.1485   4.2664

          k =-0.2500 0.2500 0.7500 (   311 PWs)   bands (ev):

    -5.1818  -0.0414   2.3126   3.5086

          k = 0.5000 0.0000 1.5000 (   315 PWs)   bands (ev):

    -5.5286   0.5005   2.1485   4.2664

          k =-0.2500 0.7500 0.2500 (   311 PWs)   bands (ev):

    -5.1818  -0.0414   2.3126   3.5086

          k = 0.5000 0.5000 1.0000 (   315 PWs)   bands (ev):

    -5.5286   0.5005   2.1485   4.2664

          k =-0.2500-0.7500-0.2500 (   311 PWs)   bands (ev):

    -5.1818  -0.0414   2.3126   3.5086

          k = 0.5000-1.0000 0.5000 (   315 PWs)   bands (ev):

    -5.5286   0.5005   2.1485   4.2664

          k = 0.2500-0.7500 0.2500 (   311 PWs)   bands (ev):

    -5.1818  -0.0414   2.3126   3.5086

          k = 1.0000-1.0000 1.0000 (   331 PWs)   bands (ev):

    -6.9796   5.1762   5.1762   5.1762

     highest occupied level (ev):     4.6970

     Writing output data file AlAs.save/

     Phonons on a uniform q-grid                                                

     bravais-lattice index     =            2
     lattice parameter (alat)  =      10.5000  a.u.
     unit-cell volume          =     289.4062 (a.u.)^3
     number of atoms/cell      =            2
     number of atomic types    =            2
     kinetic-energy cut-off    =      16.0000  Ry
     charge density cut-off    =      64.0000  Ry
     convergence threshold     =      1.0E-14
     beta                      =       0.7000
     number of iterations used =            4
     Exchange-correlation      = PZ ( 1  1  0  0 0 0)


     celldm(1)=   10.50000  celldm(2)=    0.00000  celldm(3)=    0.00000
     celldm(4)=    0.00000  celldm(5)=    0.00000  celldm(6)=    0.00000

     crystal axes: (cart. coord. in units of alat)
               a(1) = ( -0.5000  0.0000  0.5000 )  
               a(2) = (  0.0000  0.5000  0.5000 )  
               a(3) = ( -0.5000  0.5000  0.0000 )  

     reciprocal axes: (cart. coord. in units 2 pi/alat)
               b(1) = ( -1.0000 -1.0000  1.0000 )  
               b(2) = (  1.0000  1.0000  1.0000 )  
               b(3) = ( -1.0000  1.0000 -1.0000 )  


     Atoms inside the unit cell: 

     Cartesian axes

     site n.  atom      mass           positions (alat units)
        1     Al  26.9800   tau(    1) = (    0.00000    0.00000    0.00000  )
        2     As  74.9200   tau(    2) = (    0.25000    0.25000    0.25000  )

     Computing dynamical matrix for 
                    q = (   0.7500000  -0.2500000   0.7500000 )
 
      2 Sym.Ops. (no q -> -q+G )


     G cutoff =  178.7306  (    306 G-vectors)     FFT grid: ( 20, 20, 20)
     number of k points=    40

     PseudoPot. # 1 for Al read from file:
     ./Al.pz-vbc.UPF
     MD5 check sum: 13b59ac2968bcb74bf87a15840bc9960
     Pseudo is Norm-conserving, Zval =  3.0
     Generated by new atomic code, or converted to UPF format
     Using radial grid of  171 points,  2 beta functions with: 
                l(1) =   0
                l(2) =   1

     PseudoPot. # 2 for As read from file:
     ./As.pz-bhs.UPF
     MD5 check sum: d9127a8b584737f42ec2fe47e3acdea8
     Pseudo is Norm-conserving, Zval =  5.0
     Generated by new atomic code, or converted to UPF format
     Using radial grid of  525 points,  2 beta functions with: 
                l(1) =   0
                l(2) =   1

     Mode symmetry, C_s (m)     point group:


     Atomic displacements:
     There are   6 irreducible representations

     Representation     1      1 modes -A'  To be done

     Representation     2      1 modes -A'  To be done

     Representation     3      1 modes -A'  To be done

     Representation     4      1 modes -A'  To be done

     Representation     5      1 modes -A''  To be done

     Representation     6      1 modes -A''  To be done



     Alpha used in Ewald sum =   0.7000
     PHONON       :     10.12s CPU     16.77s WALL



     Representation #  1 mode #   1

     Self-consistent Calculation

      iter #   1 total cpu time :    16.9 secs   av.it.:   5.6
      thresh= 1.000E-02 alpha_mix =  0.700 |ddv_scf|^2 =  2.505E-05

      iter #   2 total cpu time :    17.1 secs   av.it.:   8.8
      thresh= 5.005E-04 alpha_mix =  0.700 |ddv_scf|^2 =  4.789E-05

      iter #   3 total cpu time :    17.3 secs   av.it.:   8.2
      thresh= 6.920E-04 alpha_mix =  0.700 |ddv_scf|^2 =  3.047E-07

      iter #   4 total cpu time :    17.5 secs   av.it.:   8.5
      thresh= 5.520E-05 alpha_mix =  0.700 |ddv_scf|^2 =  1.986E-09

      iter #   5 total cpu time :    17.7 secs   av.it.:   8.7
      thresh= 4.456E-06 alpha_mix =  0.700 |ddv_scf|^2 =  1.085E-10

      iter #   6 total cpu time :    17.9 secs   av.it.:   8.9
      thresh= 1.042E-06 alpha_mix =  0.700 |ddv_scf|^2 =  8.750E-12

      iter #   7 total cpu time :    18.1 secs   av.it.:   8.8
      thresh= 2.958E-07 alpha_mix =  0.700 |ddv_scf|^2 =  4.520E-13

      iter #   8 total cpu time :    18.4 secs   av.it.:   8.8
      thresh= 6.723E-08 alpha_mix =  0.700 |ddv_scf|^2 =  4.011E-13

      iter #   9 total cpu time :    18.6 secs   av.it.:   8.2
      thresh= 6.333E-08 alpha_mix =  0.700 |ddv_scf|^2 =  3.055E-14

      iter #  10 total cpu time :    18.8 secs   av.it.:   8.4
      thresh= 1.748E-08 alpha_mix =  0.700 |ddv_scf|^2 =  3.718E-15

     End of self-consistent calculation

     Convergence has been achieved 


     Representation #  2 mode #   2

     Self-consistent Calculation

      iter #   1 total cpu time :    19.0 secs   av.it.:   6.3
      thresh= 1.000E-02 alpha_mix =  0.700 |ddv_scf|^2 =  9.310E-05

      iter #   2 total cpu time :    19.2 secs   av.it.:   8.9
      thresh= 9.649E-04 alpha_mix =  0.700 |ddv_scf|^2 =  1.996E-04

      iter #   3 total cpu time :    19.4 secs   av.it.:   8.1
      thresh= 1.413E-03 alpha_mix =  0.700 |ddv_scf|^2 =  5.790E-07

      iter #   4 total cpu time :    19.6 secs   av.it.:   8.8
      thresh= 7.609E-05 alpha_mix =  0.700 |ddv_scf|^2 =  3.533E-09

      iter #   5 total cpu time :    19.8 secs   av.it.:   8.8
      thresh= 5.944E-06 alpha_mix =  0.700 |ddv_scf|^2 =  4.394E-10

      iter #   6 total cpu time :    20.0 secs   av.it.:   8.8
      thresh= 2.096E-06 alpha_mix =  0.700 |ddv_scf|^2 =  8.086E-12

      iter #   7 total cpu time :    20.3 secs   av.it.:   8.8
      thresh= 2.844E-07 alpha_mix =  0.700 |ddv_scf|^2 =  3.176E-13

      iter #   8 total cpu time :    20.5 secs   av.it.:   8.8
      thresh= 5.636E-08 alpha_mix =  0.700 |ddv_scf|^2 =  4.740E-14

      iter #   9 total cpu time :    20.7 secs   av.it.:   8.2
      thresh= 2.177E-08 alpha_mix =  0.700 |ddv_scf|^2 =  4.823E-15

     End of self-consistent calculation

     Convergence has been achieved 


     Representation #  3 mode #   3

     Self-consistent Calculation

      iter #   1 total cpu time :    20.9 secs   av.it.:   6.3
      thresh= 1.000E-02 alpha_mix =  0.700 |ddv_scf|^2 =  8.927E-05

      iter #   2 total cpu time :    21.1 secs   av.it.:   8.8
      thresh= 9.448E-04 alpha_mix =  0.700 |ddv_scf|^2 =  1.920E-04

      iter #   3 total cpu time :    21.3 secs   av.it.:   8.2
      thresh= 1.386E-03 alpha_mix =  0.700 |ddv_scf|^2 =  9.173E-07

      iter #   4 total cpu time :    21.5 secs   av.it.:   8.5
      thresh= 9.577E-05 alpha_mix =  0.700 |ddv_scf|^2 =  2.819E-09

      iter #   5 total cpu time :    21.7 secs   av.it.:   8.8
      thresh= 5.310E-06 alpha_mix =  0.700 |ddv_scf|^2 =  3.259E-10

      iter #   6 total cpu time :    21.9 secs   av.it.:   8.8
      thresh= 1.805E-06 alpha_mix =  0.700 |ddv_scf|^2 =  7.108E-12

      iter #   7 total cpu time :    22.1 secs   av.it.:   8.6
      thresh= 2.666E-07 alpha_mix =  0.700 |ddv_scf|^2 =  1.727E-13

      iter #   8 total cpu time :    22.3 secs   av.it.:   9.1
      thresh= 4.156E-08 alpha_mix =  0.700 |ddv_scf|^2 =  3.000E-13

      iter #   9 total cpu time :    22.5 secs   av.it.:   8.1
      thresh= 5.477E-08 alpha_mix =  0.700 |ddv_scf|^2 =  3.768E-15

     End of self-consistent calculation

     Convergence has been achieved 


     Representation #  4 mode #   4

     Self-consistent Calculation

      iter #   1 total cpu time :    22.7 secs   av.it.:   5.3
      thresh= 1.000E-02 alpha_mix =  0.700 |ddv_scf|^2 =  4.118E-06

      iter #   2 total cpu time :    22.9 secs   av.it.:   9.0
      thresh= 2.029E-04 alpha_mix =  0.700 |ddv_scf|^2 =  4.305E-06

      iter #   3 total cpu time :    23.1 secs   av.it.:   8.2
      thresh= 2.075E-04 alpha_mix =  0.700 |ddv_scf|^2 =  2.064E-07

      iter #   4 total cpu time :    23.3 secs   av.it.:   8.2
      thresh= 4.543E-05 alpha_mix =  0.700 |ddv_scf|^2 =  2.079E-09

      iter #   5 total cpu time :    23.5 secs   av.it.:   8.8
      thresh= 4.559E-06 alpha_mix =  0.700 |ddv_scf|^2 =  1.980E-10

      iter #   6 total cpu time :    23.7 secs   av.it.:   8.8
      thresh= 1.407E-06 alpha_mix =  0.700 |ddv_scf|^2 =  1.141E-11

      iter #   7 total cpu time :    23.9 secs   av.it.:   8.8
      thresh= 3.378E-07 alpha_mix =  0.700 |ddv_scf|^2 =  3.398E-13

      iter #   8 total cpu time :    24.1 secs   av.it.:   8.8
      thresh= 5.829E-08 alpha_mix =  0.700 |ddv_scf|^2 =  1.108E-15

     End of self-consistent calculation

     Convergence has been achieved 


     Representation #  5 mode #   5

     Self-consistent Calculation

      iter #   1 total cpu time :    24.3 secs   av.it.:   5.8
      thresh= 1.000E-02 alpha_mix =  0.700 |ddv_scf|^2 =  7.096E-06

      iter #   2 total cpu time :    24.5 secs   av.it.:   8.5
      thresh= 2.664E-04 alpha_mix =  0.700 |ddv_scf|^2 =  1.137E-06

      iter #   3 total cpu time :    24.7 secs   av.it.:   8.3
      thresh= 1.066E-04 alpha_mix =  0.700 |ddv_scf|^2 =  2.758E-10

      iter #   4 total cpu time :    24.9 secs   av.it.:   8.2
      thresh= 1.661E-06 alpha_mix =  0.700 |ddv_scf|^2 =  9.877E-12

      iter #   5 total cpu time :    25.1 secs   av.it.:   8.3
      thresh= 3.143E-07 alpha_mix =  0.700 |ddv_scf|^2 =  3.919E-14

      iter #   6 total cpu time :    25.3 secs   av.it.:   8.7
      thresh= 1.980E-08 alpha_mix =  0.700 |ddv_scf|^2 =  1.381E-16

     End of self-consistent calculation

     Convergence has been achieved 


     Representation #  6 mode #   6

     Self-consistent Calculation

      iter #   1 total cpu time :    25.5 secs   av.it.:   4.8
      thresh= 1.000E-02 alpha_mix =  0.700 |ddv_scf|^2 =  9.547E-07

      iter #   2 total cpu time :    25.7 secs   av.it.:   8.4
      thresh= 9.771E-05 alpha_mix =  0.700 |ddv_scf|^2 =  1.380E-07

      iter #   3 total cpu time :    25.9 secs   av.it.:   8.3
      thresh= 3.714E-05 alpha_mix =  0.700 |ddv_scf|^2 =  4.674E-10

      iter #   4 total cpu time :    26.1 secs   av.it.:   7.9
      thresh= 2.162E-06 alpha_mix =  0.700 |ddv_scf|^2 =  1.252E-11

      iter #   5 total cpu time :    26.3 secs   av.it.:   7.8
      thresh= 3.539E-07 alpha_mix =  0.700 |ddv_scf|^2 =  4.637E-15

     End of self-consistent calculation

     Convergence has been achieved 
 
     Number of q in the star =   12
     List of q in the star:
          1   0.750000000  -0.250000000   0.750000000
          2  -0.750000000  -0.250000000  -0.750000000
          3   0.250000000  -0.750000000   0.750000000
          4  -0.750000000   0.250000000   0.750000000
          5   0.750000000   0.250000000  -0.750000000
          6   0.750000000   0.750000000  -0.250000000
          7  -0.750000000  -0.750000000  -0.250000000
          8  -0.750000000   0.750000000   0.250000000
          9  -0.250000000   0.750000000   0.750000000
         10   0.250000000   0.750000000  -0.750000000
         11  -0.250000000  -0.750000000  -0.750000000
         12   0.750000000  -0.750000000   0.250000000
     In addition there is the -q list: 
          1  -0.750000000   0.250000000  -0.750000000
          2   0.750000000   0.250000000   0.750000000
          3  -0.250000000   0.750000000  -0.750000000
          4   0.750000000  -0.250000000  -0.750000000
          5  -0.750000000  -0.250000000   0.750000000
          6  -0.750000000  -0.750000000   0.250000000
          7   0.750000000   0.750000000   0.250000000
          8   0.750000000  -0.750000000  -0.250000000
          9   0.250000000  -0.750000000  -0.750000000
         10  -0.250000000  -0.750000000   0.750000000
         11   0.250000000   0.750000000   0.750000000
         12  -0.750000000   0.750000000  -0.250000000

     Diagonalizing the dynamical matrix

     q = (    0.750000000  -0.250000000   0.750000000 ) 

[...]
               b(3) = ( -1.000000  1.000000 -1.000000 )  


     PseudoPot. # 1 for Al read from file:
     ./Al.pz-vbc.UPF
     MD5 check sum: 13b59ac2968bcb74bf87a15840bc9960
     Pseudo is Norm-conserving, Zval =  3.0
     Generated by new atomic code, or converted to UPF format
     Using radial grid of  171 points,  2 beta functions with: 
                l(1) =   0
                l(2) =   1

     PseudoPot. # 2 for As read from file:
     ./As.pz-bhs.UPF
     MD5 check sum: d9127a8b584737f42ec2fe47e3acdea8
     Pseudo is Norm-conserving, Zval =  5.0
     Generated by new atomic code, or converted to UPF format
     Using radial grid of  525 points,  2 beta functions with: 
                l(1) =   0
                l(2) =   1

     atomic species   valence    mass     pseudopotential
        Al             3.00    26.98000     Al( 1.00)
        As             5.00    74.92000     As( 1.00)

     24 Sym. Ops. (no inversion) found



   Cartesian axes

     site n.     atom                  positions (alat units)
         1           Al  tau(   1) = (   0.0000000   0.0000000   0.0000000  )
         2           As  tau(   2) = (   0.2500000   0.2500000   0.2500000  )

     number of k points=    16
                       cart. coord. in units 2pi/alat
        k(    1) = (   0.2500000   0.2500000   0.2500000), wk =   0.2500000
        k(    2) = (  -0.2500000  -0.7500000   0.2500000), wk =   0.0000000
        k(    3) = (   0.2500000   0.2500000   0.7500000), wk =   0.2500000
        k(    4) = (  -0.2500000  -0.7500000   0.7500000), wk =   0.0000000
        k(    5) = (  -0.2500000  -0.2500000  -0.2500000), wk =   0.2500000
        k(    6) = (  -0.7500000  -1.2500000  -0.2500000), wk =   0.0000000
        k(    7) = (  -0.7500000  -0.2500000   0.2500000), wk =   0.2500000
        k(    8) = (  -1.2500000  -1.2500000   0.2500000), wk =   0.0000000
        k(    9) = (  -0.2500000  -0.2500000   0.7500000), wk =   0.2500000
        k(   10) = (  -0.7500000  -1.2500000   0.7500000), wk =   0.0000000
        k(   11) = (  -0.2500000  -0.2500000  -0.7500000), wk =   0.2500000
        k(   12) = (  -0.7500000  -1.2500000  -0.7500000), wk =   0.0000000
        k(   13) = (   0.2500000   0.2500000  -0.7500000), wk =   0.2500000
        k(   14) = (  -0.2500000  -0.7500000  -0.7500000), wk =   0.0000000
        k(   15) = (   0.7500000  -0.2500000   0.2500000), wk =   0.2500000
        k(   16) = (   0.2500000  -1.2500000   0.2500000), wk =   0.0000000

     Dense  grid:     2445 G-vectors     FFT dimensions: (  20,  20,  20)

     Estimated max dynamical RAM per process >       0.37 MB

     Estimated total dynamical RAM >       2.95 MB

     The potential is recalculated from file :
     ./out/_ph0/AlAs.save/charge-density

     Starting wfcs are    8 atomic wfcs

     Band Structure Calculation
     Davidson diagonalization with overlap

     ethr =  1.25E-10,  avg # of iterations = 11.8

     total cpu time spent up to now is        2.2 secs

     End of band structure calculation

          k = 0.2500 0.2500 0.2500 (   311 PWs)   bands (ev):

    -6.3574   1.7036   4.6970   4.6970

          k =-0.2500-0.7500 0.2500 (   311 PWs)   bands (ev):

    -5.1818  -0.0414   2.3126   3.5086

          k = 0.2500 0.2500 0.7500 (   311 PWs)   bands (ev):

    -5.1818  -0.0414   2.3126   3.5086

          k =-0.2500-0.7500 0.7500 (   311 PWs)   bands (ev):

    -5.1818  -0.0414   2.3126   3.5086

          k =-0.2500-0.2500-0.2500 (   311 PWs)   bands (ev):

    -6.3574   1.7036   4.6970   4.6970

          k =-0.7500-1.2500-0.2500 (   311 PWs)   bands (ev):

    -5.1818  -0.0414   2.3126   3.5086

          k =-0.7500-0.2500 0.2500 (   311 PWs)   bands (ev):

    -5.1818  -0.0414   2.3126   3.5086

          k =-1.2500-1.2500 0.2500 (   311 PWs)   bands (ev):

    -5.1818  -0.0414   2.3126   3.5086

          k =-0.2500-0.2500 0.7500 (   311 PWs)   bands (ev):

    -5.1818  -0.0414   2.3126   3.5086

          k =-0.7500-1.2500 0.7500 (   311 PWs)   bands (ev):

    -6.3574   1.7036   4.6970   4.6970

          k =-0.2500-0.2500-0.7500 (   311 PWs)   bands (ev):

    -5.1818  -0.0414   2.3126   3.5086

          k =-0.7500-1.2500-0.7500 (   311 PWs)   bands (ev):

    -6.3574   1.7036   4.6970   4.6970

          k = 0.2500 0.2500-0.7500 (   311 PWs)   bands (ev):

    -5.1818  -0.0414   2.3126   3.5086

          k =-0.2500-0.7500-0.7500 (   311 PWs)   bands (ev):

    -5.1818  -0.0414   2.3126   3.5086

          k = 0.7500-0.2500 0.2500 (   311 PWs)   bands (ev):

    -5.1818  -0.0414   2.3126   3.5086

          k = 0.2500-1.2500 0.2500 (   311 PWs)   bands (ev):

    -5.1818  -0.0414   2.3126   3.5086

     highest occupied level (ev):     4.6970

     Writing output data file AlAs.save/

     Phonons on a uniform q-grid                                                

     bravais-lattice index     =            2
     lattice parameter (alat)  =      10.5000  a.u.
     unit-cell volume          =     289.4062 (a.u.)^3
     number of atoms/cell      =            2
     number of atomic types    =            2
     kinetic-energy cut-off    =      16.0000  Ry
     charge density cut-off    =      64.0000  Ry
     convergence threshold     =      1.0E-14
     beta                      =       0.7000
     number of iterations used =            4
     Exchange-correlation      = PZ ( 1  1  0  0 0 0)


     celldm(1)=   10.50000  celldm(2)=    0.00000  celldm(3)=    0.00000
     celldm(4)=    0.00000  celldm(5)=    0.00000  celldm(6)=    0.00000

     crystal axes: (cart. coord. in units of alat)
               a(1) = ( -0.5000  0.0000  0.5000 )  
               a(2) = (  0.0000  0.5000  0.5000 )  
               a(3) = ( -0.5000  0.5000  0.0000 )  

     reciprocal axes: (cart. coord. in units 2 pi/alat)
               b(1) = ( -1.0000 -1.0000  1.0000 )  
               b(2) = (  1.0000  1.0000  1.0000 )  
               b(3) = ( -1.0000  1.0000 -1.0000 )  


     Atoms inside the unit cell: 

     Cartesian axes

     site n.  atom      mass           positions (alat units)
        1     Al  26.9800   tau(    1) = (    0.00000    0.00000    0.00000  )
        2     As  74.9200   tau(    2) = (    0.25000    0.25000    0.25000  )

     Computing dynamical matrix for 
                    q = (  -0.5000000  -1.0000000   0.0000000 )
 
      4 Sym.Ops. (no q -> -q+G )


     G cutoff =  178.7306  (    306 G-vectors)     FFT grid: ( 20, 20, 20)
     number of k points=    16

     PseudoPot. # 1 for Al read from file:
     ./Al.pz-vbc.UPF
     MD5 check sum: 13b59ac2968bcb74bf87a15840bc9960
     Pseudo is Norm-conserving, Zval =  3.0
     Generated by new atomic code, or converted to UPF format
     Using radial grid of  171 points,  2 beta functions with: 
                l(1) =   0
                l(2) =   1

     PseudoPot. # 2 for As read from file:
     ./As.pz-bhs.UPF
     MD5 check sum: d9127a8b584737f42ec2fe47e3acdea8
     Pseudo is Norm-conserving, Zval =  5.0
     Generated by new atomic code, or converted to UPF format
     Using radial grid of  525 points,  2 beta functions with: 
                l(1) =   0
                l(2) =   1

     Mode symmetry, S_4 (-4)    point group:


     Atomic displacements:
     There are   6 irreducible representations

     Representation     1      1 modes -A    W_1  To be done

     Representation     2      1 modes -B    W_3  To be done

     Representation     3      1 modes -B    W_3  To be done

     Representation     4      1 modes -E    W_4  To be done

     Representation     5      1 modes -E    W_4  To be done

     Representation     6      1 modes -E*   W_2  To be done



     Alpha used in Ewald sum =   0.7000
     PHONON       :     25.02s CPU     39.37s WALL



     Representation #  1 mode #   1

     Self-consistent Calculation

      iter #   1 total cpu time :    39.4 secs   av.it.:   6.2
      thresh= 1.000E-02 alpha_mix =  0.700 |ddv_scf|^2 =  4.852E-05

      iter #   2 total cpu time :    39.5 secs   av.it.:   9.0
      thresh= 6.966E-04 alpha_mix =  0.700 |ddv_scf|^2 =  5.168E-05

      iter #   3 total cpu time :    39.6 secs   av.it.:   8.2
      thresh= 7.189E-04 alpha_mix =  0.700 |ddv_scf|^2 =  5.364E-10

      iter #   4 total cpu time :    39.8 secs   av.it.:   9.1
      thresh= 2.316E-06 alpha_mix =  0.700 |ddv_scf|^2 =  5.313E-11

      iter #   5 total cpu time :    39.8 secs   av.it.:   8.5
      thresh= 7.289E-07 alpha_mix =  0.700 |ddv_scf|^2 =  1.081E-13

      iter #   6 total cpu time :    39.9 secs   av.it.:   8.8
      thresh= 3.288E-08 alpha_mix =  0.700 |ddv_scf|^2 =  1.800E-14

      iter #   7 total cpu time :    40.1 secs   av.it.:   8.8
      thresh= 1.342E-08 alpha_mix =  0.700 |ddv_scf|^2 =  4.275E-15

     End of self-consistent calculation

     Convergence has been achieved 


     Representation #  2 mode #   2

     Self-consistent Calculation

      iter #   1 total cpu time :    40.2 secs   av.it.:   6.2
      thresh= 1.000E-02 alpha_mix =  0.700 |ddv_scf|^2 =  3.477E-05

      iter #   2 total cpu time :    40.3 secs   av.it.:   9.1
      thresh= 5.897E-04 alpha_mix =  0.700 |ddv_scf|^2 =  2.152E-05

      iter #   3 total cpu time :    40.4 secs   av.it.:   8.5
      thresh= 4.639E-04 alpha_mix =  0.700 |ddv_scf|^2 =  3.609E-10

      iter #   4 total cpu time :    40.5 secs   av.it.:   8.9
      thresh= 1.900E-06 alpha_mix =  0.700 |ddv_scf|^2 =  3.351E-11

      iter #   5 total cpu time :    40.6 secs   av.it.:   8.5
      thresh= 5.788E-07 alpha_mix =  0.700 |ddv_scf|^2 =  6.504E-14

      iter #   6 total cpu time :    40.7 secs   av.it.:   9.1
      thresh= 2.550E-08 alpha_mix =  0.700 |ddv_scf|^2 =  4.549E-16

     End of self-consistent calculation

     Convergence has been achieved 


     Representation #  3 mode #   3

     Self-consistent Calculation

      iter #   1 total cpu time :    40.8 secs   av.it.:   5.5
      thresh= 1.000E-02 alpha_mix =  0.700 |ddv_scf|^2 =  4.093E-06

      iter #   2 total cpu time :    40.9 secs   av.it.:   9.1
      thresh= 2.023E-04 alpha_mix =  0.700 |ddv_scf|^2 =  2.536E-06

      iter #   3 total cpu time :    41.0 secs   av.it.:   8.5
      thresh= 1.592E-04 alpha_mix =  0.700 |ddv_scf|^2 =  5.911E-10

      iter #   4 total cpu time :    41.1 secs   av.it.:   8.0
      thresh= 2.431E-06 alpha_mix =  0.700 |ddv_scf|^2 =  3.905E-11

      iter #   5 total cpu time :    41.2 secs   av.it.:   8.0
      thresh= 6.249E-07 alpha_mix =  0.700 |ddv_scf|^2 =  6.069E-15

     End of self-consistent calculation

     Convergence has been achieved 


     Representation #  4 mode #   4

     Self-consistent Calculation

      iter #   1 total cpu time :    41.3 secs   av.it.:   6.2
      thresh= 1.000E-02 alpha_mix =  0.700 |ddv_scf|^2 =  1.961E-05

      iter #   2 total cpu time :    41.5 secs   av.it.:   9.2
      thresh= 4.428E-04 alpha_mix =  0.700 |ddv_scf|^2 =  9.383E-06

      iter #   3 total cpu time :    41.6 secs   av.it.:   8.8
      thresh= 3.063E-04 alpha_mix =  0.700 |ddv_scf|^2 =  1.073E-09

      iter #   4 total cpu time :    41.7 secs   av.it.:   9.0
      thresh= 3.275E-06 alpha_mix =  0.700 |ddv_scf|^2 =  3.939E-11

      iter #   5 total cpu time :    41.8 secs   av.it.:   8.8
      thresh= 6.276E-07 alpha_mix =  0.700 |ddv_scf|^2 =  8.241E-14

      iter #   6 total cpu time :    41.9 secs   av.it.:   9.2
      thresh= 2.871E-08 alpha_mix =  0.700 |ddv_scf|^2 =  9.178E-16

     End of self-consistent calculation

     Convergence has been achieved 


     Representation #  5 mode #   5

     Self-consistent Calculation

      iter #   1 total cpu time :    42.0 secs   av.it.:   5.8
      thresh= 1.000E-02 alpha_mix =  0.700 |ddv_scf|^2 =  5.369E-06

      iter #   2 total cpu time :    42.1 secs   av.it.:   9.2
      thresh= 2.317E-04 alpha_mix =  0.700 |ddv_scf|^2 =  2.359E-06

      iter #   3 total cpu time :    42.2 secs   av.it.:   8.8
      thresh= 1.536E-04 alpha_mix =  0.700 |ddv_scf|^2 =  6.855E-10

      iter #   4 total cpu time :    42.3 secs   av.it.:   8.5
      thresh= 2.618E-06 alpha_mix =  0.700 |ddv_scf|^2 =  1.121E-11

      iter #   5 total cpu time :    42.4 secs   av.it.:   8.2
      thresh= 3.349E-07 alpha_mix =  0.700 |ddv_scf|^2 =  3.071E-14

      iter #   6 total cpu time :    42.5 secs   av.it.:   9.0
      thresh= 1.752E-08 alpha_mix =  0.700 |ddv_scf|^2 =  1.646E-16

     End of self-consistent calculation

     Convergence has been achieved 


     Representation #  6 mode #   6

     Self-consistent Calculation

      iter #   1 total cpu time :    42.7 secs   av.it.:   5.5
      thresh= 1.000E-02 alpha_mix =  0.700 |ddv_scf|^2 =  6.207E-06

      iter #   2 total cpu time :    42.8 secs   av.it.:   9.1
      thresh= 2.491E-04 alpha_mix =  0.700 |ddv_scf|^2 =  4.250E-06

      iter #   3 total cpu time :    42.8 secs   av.it.:   8.5
      thresh= 2.062E-04 alpha_mix =  0.700 |ddv_scf|^2 =  4.840E-09

      iter #   4 total cpu time :    42.9 secs   av.it.:   8.2
      thresh= 6.957E-06 alpha_mix =  0.700 |ddv_scf|^2 =  5.548E-11

      iter #   5 total cpu time :    43.0 secs   av.it.:   8.0
      thresh= 7.448E-07 alpha_mix =  0.700 |ddv_scf|^2 =  7.794E-14

      iter #   6 total cpu time :    43.2 secs   av.it.:   8.5
      thresh= 2.792E-08 alpha_mix =  0.700 |ddv_scf|^2 =  7.755E-16

     End of self-consistent calculation

     Convergence has been achieved 
 
     Number of q in the star =    6
     List of q in the star:
          1  -0.500000000  -1.000000000   0.000000000
          2   0.000000000   1.000000000  -0.500000000
          3   0.000000000   1.000000000   0.500000000
          4   0.500000000   1.000000000   0.000000000
          5   0.000000000  -0.500000000  -1.000000000
          6   0.000000000   0.500000000  -1.000000000

     Diagonalizing the dynamical matrix

     q = (   -0.500000000  -1.000000000   0.000000000 ) 

 **************************************************************************
     freq (    1) =       3.745886 [THz] =     124.949313 [cm-1]
     freq (    2) =       4.014570 [THz] =     133.911632 [cm-1]
     freq (    3) =       5.963666 [THz] =     198.926490 [cm-1]
     freq (    4) =      10.536673 [THz] =     351.465584 [cm-1]
     freq (    5) =      10.642678 [THz] =     355.001531 [cm-1]
     freq (    6) =      10.759311 [THz] =     358.891973 [cm-1]
 **************************************************************************

     Mode symmetry, S_4 (-4)    point group:

     freq (  1 -  1) =        124.9  [cm-1]   --> B    W_3           
     freq (  2 -  2) =        133.9  [cm-1]   --> E    W_4           
     freq (  3 -  3) =        198.9  [cm-1]   --> A    W_1           
     freq (  4 -  4) =        351.5  [cm-1]   --> B    W_3           
     freq (  5 -  5) =        355.0  [cm-1]   --> E*   W_2           
     freq (  6 -  6) =        358.9  [cm-1]   --> E    W_4           
 
     init_run     :      0.07s CPU      0.14s WALL (       7 calls)
     electrons    :      1.47s CPU      1.82s WALL (       7 calls)

     Called by init_run:
     wfcinit      :      0.00s CPU      0.02s WALL (       7 calls)
     potinit      :      0.01s CPU      0.02s WALL (       7 calls)
     hinit0       :      0.06s CPU      0.06s WALL (       7 calls)

     Called by electrons:
     c_bands      :      1.47s CPU      1.80s WALL (       7 calls)
     v_of_rho     :      0.00s CPU      0.00s WALL (       8 calls)

     Called by c_bands:
     init_us_2    :      0.08s CPU      0.10s WALL (    3980 calls)
     cegterg      :      1.28s CPU      1.54s WALL (     156 calls)

     Called by sum_band:

     Called by *egterg:
     h_psi        :     15.47s CPU     19.79s WALL (   35206 calls)
     g_psi        :      0.01s CPU      0.01s WALL (    1782 calls)
     cdiaghg      :      0.18s CPU      0.21s WALL (    1938 calls)

     Called by h_psi:
     h_psi:pot    :     15.31s CPU     19.60s WALL (   35206 calls)
     h_psi:calbec :      1.24s CPU      1.61s WALL (   35206 calls)
     vloc_psi     :     13.37s CPU     17.14s WALL (   35206 calls)
     add_vuspsi   :      0.39s CPU      0.49s WALL (   35206 calls)

     General routines
     calbec       :      2.07s CPU      2.78s WALL (   71044 calls)
     fft          :      0.09s CPU      0.10s WALL (    1020 calls)
     ffts         :      0.06s CPU      0.08s WALL (     720 calls)
     fftw         :     14.97s CPU     19.26s WALL (  308108 calls)
     davcio       :      0.19s CPU      0.31s WALL (   19210 calls)
 
     Parallel routines
     fft_scatt_xy :      1.28s CPU      1.55s WALL (  309848 calls)
     fft_scatt_yz :      6.07s CPU      8.41s WALL (  309848 calls)
 
     PHONON       :     27.20s CPU     43.24s WALL

     INITIALIZATION: 
     phq_setup    :      0.05s CPU      0.16s WALL (       8 calls)
     phq_init     :      0.08s CPU      0.15s WALL (       8 calls)
 
     phq_init     :      0.08s CPU      0.15s WALL (       8 calls)
     init_vloc    :      0.00s CPU      0.01s WALL (       8 calls)
     init_us_1    :      0.03s CPU      0.03s WALL (       8 calls)
 
     DYNAMICAL MATRIX:
     dynmat0      :      0.03s CPU      0.10s WALL (       8 calls)
     phqscf       :     24.67s CPU     38.88s WALL (       8 calls)
     dynmatrix    :      0.02s CPU      0.11s WALL (       8 calls)
 
     phqscf       :     24.67s CPU     38.88s WALL (       8 calls)
     solve_linter :     24.43s CPU     37.77s WALL (      38 calls)
     drhodv       :      0.14s CPU      0.26s WALL (      38 calls)
 
     dynmat0      :      0.03s CPU      0.10s WALL (       8 calls)
     dynmat_us    :      0.02s CPU      0.03s WALL (       8 calls)
     d2ionq       :      0.00s CPU      0.00s WALL (       8 calls)
 
     dynmat_us    :      0.02s CPU      0.03s WALL (       8 calls)
 
     phqscf       :     24.67s CPU     38.88s WALL (       8 calls)
     solve_linter :     24.43s CPU     37.77s WALL (      38 calls)
 
     solve_linter :     24.43s CPU     37.77s WALL (      38 calls)
     dvqpsi_us    :      0.29s CPU      0.35s WALL (     492 calls)
     ortho        :      0.14s CPU      0.18s WALL (    3482 calls)
     cgsolve      :     18.66s CPU     24.01s WALL (    3482 calls)
     incdrhoscf   :      1.52s CPU      1.92s WALL (    3476 calls)
     vpsifft      :      1.43s CPU      1.85s WALL (    2960 calls)
     dv_of_drho   :      0.09s CPU      0.10s WALL (     329 calls)
     mix_pot      :      0.38s CPU      3.47s WALL (     266 calls)
     psymdvscf    :      1.27s CPU      1.31s WALL (     260 calls)
 
     dvqpsi_us    :      0.29s CPU      0.35s WALL (     492 calls)
     dvqpsi_us_on :      0.01s CPU      0.02s WALL (     492 calls)
 
     cgsolve      :     18.66s CPU     24.01s WALL (    3482 calls)
     ch_psi       :     17.10s CPU     21.94s WALL (   33112 calls)
 
     ch_psi       :     17.10s CPU     21.94s WALL (   33112 calls)
     h_psi        :     15.47s CPU     19.79s WALL (   35206 calls)
     last         :      2.09s CPU      2.72s WALL (   33112 calls)
 
     h_psi        :     15.47s CPU     19.79s WALL (   35206 calls)
     add_vuspsi   :      0.39s CPU      0.49s WALL (   35206 calls)
 
     incdrhoscf   :      1.52s CPU      1.92s WALL (    3476 calls)
 
 
      General routines
     calbec       :      2.07s CPU      2.78s WALL (   71044 calls)
     fft          :      0.09s CPU      0.10s WALL (    1020 calls)
     ffts         :      0.06s CPU      0.08s WALL (     720 calls)
     fftw         :     14.97s CPU     19.26s WALL (  308108 calls)
     davcio       :      0.19s CPU      0.31s WALL (   19210 calls)
     write_rec    :      0.42s CPU      4.93s WALL (     304 calls)
 
 
     PHONON       :     27.20s CPU     43.24s WALL

 
   This run was terminated on:  18:29:41  29Aug2019            

=------------------------------------------------------------------------------=
   JOB DONE.
=------------------------------------------------------------------------------=
