
     Program PWSCF v.6.4.1 starts on 29Aug2019 at 18:25:32 

     This program is part of the open-source Quantum ESPRESSO suite
     for quantum simulation of materials; please cite
         "P. Giannozzi et al., J. Phys.:Condens. Matter 21 395502 (2009);
         "P. Giannozzi et al., J. Phys.:Condens. Matter 29 465901 (2017);
          URL http://www.quantum-espresso.org", 
     in publications or presentations arising from this work. More details at
     http://www.quantum-espresso.org/quote

     Parallel version (MPI), running on     8 processors

     MPI processes distributed on     1 nodes
     R & G space division:  proc/nbgrp/npool/nimage =       8
     Waiting for input...
     Reading input from standard input
     Message from routine read_cards :
     DEPRECATED: no units specified in ATOMIC_POSITIONS card
     Message from routine read_cards :
     ATOMIC_POSITIONS: units set to alat

     Current dimensions of program PWSCF are:
     Max number of different atomic species (ntypx) = 10
     Max number of k-points (npk) =  40000
     Max angular momentum in pseudopotentials (lmaxx) =  3

     Subspace diagonalization in iterative solution of the eigenvalue problem:
     a serial algorithm will be used

 
     Parallelization info
     --------------------
     sticks:   dense  smooth     PW     G-vecs:    dense   smooth      PW
     Min          30      30     10                  305      305      57
     Max          31      31     11                  308      308      58
     Sum         241     241     85                 2445     2445     459
 


     bravais-lattice index     =            2
     lattice parameter (alat)  =      10.5000  a.u.
     unit-cell volume          =     289.4062 (a.u.)^3
     number of atoms/cell      =            2
     number of atomic types    =            2
     number of electrons       =         8.00
     number of Kohn-Sham states=            4
     kinetic-energy cutoff     =      16.0000  Ry
     charge density cutoff     =      64.0000  Ry
     convergence threshold     =      1.0E-08
     mixing beta               =       0.7000
     number of iterations used =            8  plain     mixing
     Exchange-correlation      =  SLA  PZ   NOGX NOGC ( 1  1  0  0 0 0)

     celldm(1)=  10.500000  celldm(2)=   0.000000  celldm(3)=   0.000000
     celldm(4)=   0.000000  celldm(5)=   0.000000  celldm(6)=   0.000000

     crystal axes: (cart. coord. in units of alat)
               a(1) = (  -0.500000   0.000000   0.500000 )  
               a(2) = (   0.000000   0.500000   0.500000 )  
               a(3) = (  -0.500000   0.500000   0.000000 )  

     reciprocal axes: (cart. coord. in units 2 pi/alat)
               b(1) = ( -1.000000 -1.000000  1.000000 )  
               b(2) = (  1.000000  1.000000  1.000000 )  
               b(3) = ( -1.000000  1.000000 -1.000000 )  


     PseudoPot. # 1 for Al read from file:
     ./Al.pz-vbc.UPF
     MD5 check sum: 13b59ac2968bcb74bf87a15840bc9960
     Pseudo is Norm-conserving, Zval =  3.0
     Generated by new atomic code, or converted to UPF format
     Using radial grid of  171 points,  2 beta functions with: 
                l(1) =   0
                l(2) =   1

     PseudoPot. # 2 for As read from file:
     ./As.pz-bhs.UPF
     MD5 check sum: d9127a8b584737f42ec2fe47e3acdea8
     Pseudo is Norm-conserving, Zval =  5.0
     Generated by new atomic code, or converted to UPF format
     Using radial grid of  525 points,  2 beta functions with: 
                l(1) =   0
                l(2) =   1

     atomic species   valence    mass     pseudopotential
        Al             3.00    26.98000     Al( 1.00)
        As             5.00    74.92000     As( 1.00)

     24 Sym. Ops. (no inversion) found



   Cartesian axes

     site n.     atom                  positions (alat units)
         1           Al  tau(   1) = (   0.0000000   0.0000000   0.0000000  )
         2           As  tau(   2) = (   0.2500000   0.2500000   0.2500000  )

     number of k points=     2
                       cart. coord. in units 2pi/alat
        k(    1) = (   0.2500000   0.2500000   0.2500000), wk =   0.5000000
        k(    2) = (   0.2500000   0.2500000   0.7500000), wk =   1.5000000

     Dense  grid:     2445 G-vectors     FFT dimensions: (  20,  20,  20)

     Estimated max dynamical RAM per process >       0.45 MB

     Estimated total dynamical RAM >       3.57 MB

     Initial potential from superposition of free atoms

     starting charge    7.99774, renormalised to    8.00000
     Starting wfcs are    8 randomized atomic wfcs

     total cpu time spent up to now is        0.2 secs

     Self-consistent Calculation

     iteration #  1     ecut=    16.00 Ry     beta= 0.70
     Davidson diagonalization with overlap
     ethr =  1.00E-02,  avg # of iterations =  2.0

     Threshold (ethr) on eigenvalues was too large:
     Diagonalizing with lowered threshold

     Davidson diagonalization with overlap
     ethr =  9.15E-04,  avg # of iterations =  1.0

     total cpu time spent up to now is        0.2 secs

     total energy              =     -16.97709783 Ry
     Harris-Foulkes estimate   =     -17.00930291 Ry
     estimated scf accuracy    <       0.07328932 Ry

     iteration #  2     ecut=    16.00 Ry     beta= 0.70
     Davidson diagonalization with overlap
     ethr =  9.16E-04,  avg # of iterations =  2.0

     total cpu time spent up to now is        0.2 secs

     total energy              =     -16.98748089 Ry
     Harris-Foulkes estimate   =     -16.98988116 Ry
     estimated scf accuracy    <       0.00554183 Ry

     iteration #  3     ecut=    16.00 Ry     beta= 0.70
     Davidson diagonalization with overlap
     ethr =  6.93E-05,  avg # of iterations =  2.5

     total cpu time spent up to now is        0.2 secs

     total energy              =     -16.98876413 Ry
     Harris-Foulkes estimate   =     -16.98878678 Ry
     estimated scf accuracy    <       0.00027983 Ry

     iteration #  4     ecut=    16.00 Ry     beta= 0.70
     Davidson diagonalization with overlap
     ethr =  3.50E-06,  avg # of iterations =  1.0

     total cpu time spent up to now is        0.2 secs

     total energy              =     -16.98877339 Ry
     Harris-Foulkes estimate   =     -16.98877701 Ry
     estimated scf accuracy    <       0.00000669 Ry

     iteration #  5     ecut=    16.00 Ry     beta= 0.70
     Davidson diagonalization with overlap
     ethr =  8.37E-08,  avg # of iterations =  3.0

     total cpu time spent up to now is        0.2 secs

     total energy              =     -16.98877656 Ry
     Harris-Foulkes estimate   =     -16.98877707 Ry
     estimated scf accuracy    <       0.00000081 Ry

     iteration #  6     ecut=    16.00 Ry     beta= 0.70
     Davidson diagonalization with overlap
     ethr =  1.01E-08,  avg # of iterations =  2.0

     total cpu time spent up to now is        0.2 secs

     total energy              =     -16.98877676 Ry
     Harris-Foulkes estimate   =     -16.98877681 Ry
     estimated scf accuracy    <       0.00000008 Ry

     iteration #  7     ecut=    16.00 Ry     beta= 0.70
     Davidson diagonalization with overlap
     ethr =  1.00E-09,  avg # of iterations =  2.0

     total cpu time spent up to now is        0.2 secs

     total energy              =     -16.98877678 Ry
     Harris-Foulkes estimate   =     -16.98877679 Ry
     estimated scf accuracy    <       0.00000002 Ry

     iteration #  8     ecut=    16.00 Ry     beta= 0.70
     Davidson diagonalization with overlap
     ethr =  1.95E-10,  avg # of iterations =  2.0

     total cpu time spent up to now is        0.3 secs

     End of self-consistent calculation

          k = 0.2500 0.2500 0.2500 (   311 PWs)   bands (ev):

    -6.3574   1.7036   4.6971   4.6971

          k = 0.2500 0.2500 0.7500 (   311 PWs)   bands (ev):

    -5.1818  -0.0414   2.3126   3.5087

     highest occupied level (ev):     4.6971

!    total energy              =     -16.98877679 Ry
     Harris-Foulkes estimate   =     -16.98877679 Ry
     estimated scf accuracy    <          3.1E-11 Ry

     The total energy is the sum of the following terms:

     one-electron contribution =       3.42288832 Ry
     hartree contribution      =       1.56213076 Ry
     xc contribution           =      -4.83632995 Ry
     ewald contribution        =     -17.13746592 Ry

     convergence has been achieved in   8 iterations

     Writing output data file AlAs.save/
 
     init_run     :      0.02s CPU      0.09s WALL (       1 calls)
     electrons    :      0.06s CPU      0.09s WALL (       1 calls)

     Called by init_run:
     wfcinit      :      0.00s CPU      0.03s WALL (       1 calls)
     potinit      :      0.00s CPU      0.00s WALL (       1 calls)
     hinit0       :      0.01s CPU      0.05s WALL (       1 calls)

     Called by electrons:
     c_bands      :      0.04s CPU      0.05s WALL (       9 calls)
     sum_band     :      0.01s CPU      0.01s WALL (       9 calls)
     v_of_rho     :      0.00s CPU      0.00s WALL (       9 calls)
     mix_rho      :      0.00s CPU      0.01s WALL (       9 calls)

     Called by c_bands:
     init_us_2    :      0.00s CPU      0.00s WALL (      38 calls)
     cegterg      :      0.04s CPU      0.05s WALL (      18 calls)

     Called by sum_band:

     Called by *egterg:
     h_psi        :      0.03s CPU      0.05s WALL (      55 calls)
     g_psi        :      0.00s CPU      0.00s WALL (      35 calls)
     cdiaghg      :      0.01s CPU      0.01s WALL (      51 calls)

     Called by h_psi:
     h_psi:pot    :      0.03s CPU      0.05s WALL (      55 calls)
     h_psi:calbec :      0.00s CPU      0.01s WALL (      55 calls)
     vloc_psi     :      0.02s CPU      0.04s WALL (      55 calls)
     add_vuspsi   :      0.00s CPU      0.00s WALL (      55 calls)

     General routines
     calbec       :      0.00s CPU      0.01s WALL (      55 calls)
     fft          :      0.00s CPU      0.05s WALL (      27 calls)
     ffts         :      0.00s CPU      0.00s WALL (       9 calls)
     fftw         :      0.03s CPU      0.04s WALL (     508 calls)
 
     Parallel routines
     fft_scatt_xy :      0.00s CPU      0.00s WALL (     544 calls)
     fft_scatt_yz :      0.01s CPU      0.02s WALL (     544 calls)
 
     PWSCF        :      0.13s CPU      0.35s WALL

 
   This run was terminated on:  18:25:32  29Aug2019            

=------------------------------------------------------------------------------=
   JOB DONE.
=------------------------------------------------------------------------------=
