
     Program PWSCF v.6.7GPU starts on 18Apr2021 at 22:11:42 

     This program is part of the open-source Quantum ESPRESSO suite
     for quantum simulation of materials; please cite
         "P. Giannozzi et al., J. Phys.:Condens. Matter 21 395502 (2009);
         "P. Giannozzi et al., J. Phys.:Condens. Matter 29 465901 (2017);
         "P. Giannozzi et al., J. Chem. Phys. 152 154105 (2020);
          URL http://www.quantum-espresso.org", 
     in publications or presentations arising from this work. More details at
     http://www.quantum-espresso.org/quote

     Parallel version (MPI & OpenMP), running on       2 processor cores
     Number of MPI processes:                 2
     Threads/MPI process:                     1

     MPI processes distributed on     1 nodes
     K-points division:     npool     =       2
     Waiting for input...
     Reading input from standard input

     Current dimensions of program PWSCF are:
     Max number of different atomic species (ntypx) = 10
     Max number of k-points (npk) =  40000
     Max angular momentum in pseudopotentials (lmaxx) =  3

     Subspace diagonalization in iterative solution of the eigenvalue problem:
     a serial algorithm will be used


     G-vector sticks info
     --------------------
     sticks:   dense  smooth     PW     G-vecs:    dense   smooth      PW
     Sum        1051     345    117                21769     4093     767

     Using Slab Decomposition



     bravais-lattice index     =            3
     lattice parameter (alat)  =       4.7000  a.u.
     unit-cell volume          =      51.9115 (a.u.)^3
     number of atoms/cell      =            1
     number of atomic types    =            1
     number of electrons       =        16.00
     number of Kohn-Sham states=           12
     kinetic-energy cutoff     =      70.0000  Ry
     charge density cutoff     =     850.0000  Ry
     scf convergence threshold =      1.0E-08
     mixing beta               =       0.7000
     number of iterations used =            8  plain     mixing
     Exchange-correlation= LDA
                           (   1   1   0   0   0   0   0)

     celldm(1)=   4.700000  celldm(2)=   0.000000  celldm(3)=   0.000000
     celldm(4)=   0.000000  celldm(5)=   0.000000  celldm(6)=   0.000000

     crystal axes: (cart. coord. in units of alat)
               a(1) = (   0.500000   0.500000   0.500000 )  
               a(2) = (  -0.500000   0.500000   0.500000 )  
               a(3) = (  -0.500000  -0.500000   0.500000 )  

     reciprocal axes: (cart. coord. in units 2 pi/alat)
               b(1) = (  1.000000  0.000000  1.000000 )  
               b(2) = ( -1.000000  1.000000  0.000000 )  
               b(3) = (  0.000000 -1.000000  1.000000 )  


     PseudoPot. # 1 for Fe read from file:
     /home/pietro/repositories/materials-for-max-qe2021-online-school/pseudo/Fe.pz-spn-rrkjus_psl.0.2.1.UPF
     MD5 check sum: 3cbc4c6ff80f64c0ae98e6ac432cb3b7
     Pseudo is Ultrasoft + core correction, Zval = 16.0
     Generated using "atomic" code by A. Dal Corso  v.5.0.2 svn rev. 9415
     Using radial grid of 1191 points,  6 beta functions with: 
                l(1) =   0
                l(2) =   0
                l(3) =   1
                l(4) =   1
                l(5) =   2
                l(6) =   2
     Q(r) pseudized with 0 coefficients 


     atomic species   valence    mass     pseudopotential
        Fe            16.00    55.84500     Fe( 1.00)

     48 Sym. Ops., with inversion, found



   Cartesian axes

     site n.     atom                  positions (alat units)
         1           Fe  tau(   1) = (   0.0000000   0.0000000   0.0000000  )

     number of k points=    44  Marzari-Vanderbilt smearing, width (Ry)=  0.0200
                       cart. coord. in units 2pi/alat
        k(    1) = (   0.0000000   0.0000000   0.1000000), wk =   0.0120000
        k(    2) = (   0.0000000  -0.1000000   0.2000000), wk =   0.0480000
        k(    3) = (   0.0000000  -0.2000000   0.3000000), wk =   0.0480000
        k(    4) = (   0.0000000  -0.3000000   0.4000000), wk =   0.0480000
        k(    5) = (   0.0000000  -0.4000000   0.5000000), wk =   0.0480000
        k(    6) = (  -0.1000000   0.1000000   0.1000000), wk =   0.0160000
        k(    7) = (  -0.1000000  -0.1000000   0.3000000), wk =   0.0480000
        k(    8) = (  -0.1000000  -0.2000000   0.4000000), wk =   0.0960000
        k(    9) = (  -0.1000000  -0.3000000   0.5000000), wk =   0.0960000
        k(   10) = (  -0.1000000   0.6000000  -0.4000000), wk =   0.0480000
        k(   11) = (  -0.2000000   0.2000000   0.1000000), wk =   0.0480000
        k(   12) = (  -0.2000000  -0.2000000   0.5000000), wk =   0.0480000
        k(   13) = (  -0.2000000   0.7000000  -0.4000000), wk =   0.0960000
        k(   14) = (  -0.3000000   0.3000000   0.1000000), wk =   0.0480000
        k(   15) = (  -0.3000000   0.2000000   0.2000000), wk =   0.0480000
        k(   16) = (  -0.3000000   0.7000000  -0.3000000), wk =   0.0160000
        k(   17) = (  -0.4000000   0.4000000   0.1000000), wk =   0.0480000
        k(   18) = (  -0.4000000   0.3000000   0.2000000), wk =   0.0960000
        k(   19) = (   0.5000000  -0.5000000   0.1000000), wk =   0.0240000
        k(   20) = (   0.5000000  -0.6000000   0.2000000), wk =   0.0960000
        k(   21) = (   0.5000000  -0.7000000   0.3000000), wk =   0.0480000
        k(   22) = (   0.4000000  -0.6000000   0.3000000), wk =   0.0480000
        k(   23) = (   0.0000000   0.0000000   0.3000000), wk =   0.0120000
        k(   24) = (   0.0000000  -0.1000000   0.4000000), wk =   0.0480000
        k(   25) = (   0.0000000  -0.2000000   0.5000000), wk =   0.0480000
        k(   26) = (   0.0000000  -0.3000000   0.6000000), wk =   0.0480000
        k(   27) = (  -0.1000000  -0.1000000   0.5000000), wk =   0.0480000
        k(   28) = (  -0.1000000  -0.2000000   0.6000000), wk =   0.0960000
        k(   29) = (  -0.1000000   0.7000000  -0.3000000), wk =   0.0480000
        k(   30) = (  -0.2000000   0.8000000  -0.3000000), wk =   0.0480000
        k(   31) = (  -0.3000000   0.3000000   0.3000000), wk =   0.0160000
        k(   32) = (   0.6000000  -0.6000000   0.3000000), wk =   0.0480000
        k(   33) = (   0.5000000  -0.5000000   0.3000000), wk =   0.0240000
        k(   34) = (   0.5000000  -0.6000000   0.4000000), wk =   0.0480000
        k(   35) = (   0.0000000   0.0000000   0.5000000), wk =   0.0120000
        k(   36) = (   0.0000000  -0.1000000   0.6000000), wk =   0.0480000
        k(   37) = (   0.0000000  -0.2000000   0.7000000), wk =   0.0480000
        k(   38) = (  -0.1000000  -0.1000000   0.7000000), wk =   0.0480000
        k(   39) = (  -0.1000000   0.8000000  -0.2000000), wk =   0.0480000
        k(   40) = (   0.5000000  -0.5000000   0.5000000), wk =   0.0040000
        k(   41) = (   0.0000000   0.0000000   0.7000000), wk =   0.0120000
        k(   42) = (   0.0000000  -0.1000000   0.8000000), wk =   0.0480000
        k(   43) = (  -0.1000000   0.9000000  -0.1000000), wk =   0.0160000
        k(   44) = (   0.0000000   0.0000000   0.9000000), wk =   0.0120000

     Dense  grid:    21769 G-vectors     FFT dimensions: (  40,  40,  40)

     Smooth grid:     4093 G-vectors     FFT dimensions: (  24,  24,  24)

     Estimated max dynamical RAM per process >      49.17 MB

     Estimated total dynamical RAM >      93.03 MB

     Check: negative core charge=   -0.000012

     Initial potential from superposition of free atoms

     starting charge   15.99965, renormalised to   16.00000
     Starting wfcs are   13 randomized atomic wfcs

     total cpu time spent up to now is        0.6 secs

     Self-consistent Calculation

     iteration #  1     ecut=    70.00 Ry     beta= 0.70
     Davidson diagonalization with overlap
     ethr =  1.00E-02,  avg # of iterations =  4.2

     Threshold (ethr) on eigenvalues was too large:
     Diagonalizing with lowered threshold

     Davidson diagonalization with overlap
     ethr =  3.02E-04,  avg # of iterations =  2.8

     total cpu time spent up to now is        1.1 secs

     total energy              =    -254.13632802 Ry
     estimated scf accuracy    <       0.04917014 Ry

     iteration #  2     ecut=    70.00 Ry     beta= 0.70
     Davidson diagonalization with overlap
     ethr =  3.07E-04,  avg # of iterations =  2.0

     total cpu time spent up to now is        1.4 secs

     total energy              =    -254.14854521 Ry
     estimated scf accuracy    <       0.06762531 Ry

     iteration #  3     ecut=    70.00 Ry     beta= 0.70
     Davidson diagonalization with overlap
     ethr =  3.07E-04,  avg # of iterations =  2.1

     total cpu time spent up to now is        1.6 secs

     total energy              =    -254.16137562 Ry
     estimated scf accuracy    <       0.00009326 Ry

     iteration #  4     ecut=    70.00 Ry     beta= 0.70
     Davidson diagonalization with overlap
     ethr =  5.83E-07,  avg # of iterations =  4.6

     total cpu time spent up to now is        2.0 secs

     total energy              =    -254.16145675 Ry
     estimated scf accuracy    <       0.00003571 Ry

     iteration #  5     ecut=    70.00 Ry     beta= 0.70
     Davidson diagonalization with overlap
     ethr =  2.23E-07,  avg # of iterations =  2.0

     total cpu time spent up to now is        2.3 secs

     total energy              =    -254.16145995 Ry
     estimated scf accuracy    <       0.00000248 Ry

     iteration #  6     ecut=    70.00 Ry     beta= 0.70
     Davidson diagonalization with overlap
     ethr =  1.55E-08,  avg # of iterations =  2.9

     total cpu time spent up to now is        2.5 secs

     End of self-consistent calculation

          k = 0.0000 0.0000 0.1000 (   531 PWs)   bands (ev):

   -58.5658 -24.1562 -24.1247 -24.1247  18.2050  25.8129  25.8129  25.9216
    28.2894  28.5720  56.3770  57.5221

          k = 0.0000-0.1000 0.2000 (   516 PWs)   bands (ev):

   -58.4934 -24.4353 -24.2131 -24.1344  19.2800  25.4447  25.7259  26.6705
    27.8499  28.7064  53.8061  56.4629

          k = 0.0000-0.2000 0.3000 (   518 PWs)   bands (ev):

   -58.3750 -24.8928 -24.3558 -24.1370  20.8883  24.8325  25.5614  27.8153
    28.0404  28.8689  49.6739  54.0182

          k = 0.0000-0.3000 0.4000 (   519 PWs)   bands (ev):

   -58.2550 -25.3385 -24.4964 -24.1396  21.6491  24.2589  26.4564  28.2515
    29.2111  29.5840  45.0370  51.8348

          k = 0.0000-0.4000 0.5000 (   514 PWs)   bands (ev):

   -58.1799 -25.6086 -24.5817 -24.1409  21.5221  23.9216  27.6677  28.4473
    30.3551  30.6593  41.4437  50.5804

          k =-0.1000 0.1000 0.1000 (   516 PWs)   bands (ev):

   -58.5290 -24.3444 -24.1266 -24.1266  18.7596  25.5614  25.5614  26.5347
    28.3684  28.3684  55.6127  55.6127

          k =-0.1000-0.1000 0.3000 (   518 PWs)   bands (ev):

   -58.3995 -24.7471 -24.3171 -24.1983  20.6388  25.2897  25.3027  27.4242
    27.6988  29.0166  51.5076  53.6304

          k =-0.1000-0.2000 0.4000 (   515 PWs)   bands (ev):

   -58.2820 -25.1406 -24.4849 -24.2178  21.9717  24.6217  25.2934  27.6421
    28.9868  29.7882  47.5868  50.8828

          k =-0.1000-0.3000 0.5000 (   518 PWs)   bands (ev):

   -58.1858 -25.4538 -24.6291 -24.2230  22.1207  24.2558  25.9912  28.1244
    29.5999  31.8222  43.1585  49.3149

          k =-0.1000 0.6000-0.4000 (   513 PWs)   bands (ev):

   -58.1487 -25.5721 -24.6840 -24.2238  21.9709  24.1320  26.4216  28.2193
    30.0531  33.2513  40.8158  48.7417

          k =-0.2000 0.2000 0.1000 (   519 PWs)   bands (ev):

   -58.4321 -24.7204 -24.2474 -24.1334  20.2153  24.9791  25.2633  27.7701
    28.1309  28.5362  51.8547  53.8997

          k =-0.2000-0.2000 0.5000 (   511 PWs)   bands (ev):

   -58.1881 -25.3296 -24.7016 -24.2665  22.8741  24.0321  25.2872  27.8723
    29.2881  32.3003  45.3199  46.7355

          k =-0.2000 0.7000-0.4000 (   512 PWs)   bands (ev):

   -58.1297 -25.4061 -24.8901 -24.2812  22.9307  24.1086  25.1698  28.3144
    29.4633  35.2774  41.5706  45.1923

          k =-0.3000 0.3000 0.1000 (   516 PWs)   bands (ev):

   -58.3107 -25.1528 -24.4157 -24.1418  21.6105  24.3532  25.5034  28.2436
    28.7242  29.4500  47.3111  51.8317

          k =-0.3000 0.2000 0.2000 (   516 PWs)   bands (ev):

   -58.3320 -25.0587 -24.3471 -24.2048  21.7489  24.5481  24.6292  28.1684
    28.7339  29.5466  49.3474  50.5774

          k =-0.3000 0.7000-0.3000 (   505 PWs)   bands (ev):

   -58.1082 -25.1928 -25.1928 -24.2957  23.6013  24.2421  24.2421  28.9443
    28.9443  39.0264  39.0264  43.0911

          k =-0.4000 0.4000 0.1000 (   513 PWs)   bands (ev):

   -58.2113 -25.4909 -24.5543 -24.1488  21.7549  23.8959  27.2213  28.5042
    28.8891  31.1982  42.9705  50.2135

          k =-0.4000 0.3000 0.2000 (   512 PWs)   bands (ev):

   -58.2309 -25.3315 -24.5452 -24.2387  22.5680  24.0328  25.2006  28.3598
    28.9563  31.7468  45.2599  48.4482

          k = 0.5000-0.5000 0.1000 (   512 PWs)   bands (ev):

   -58.1731 -25.6183 -24.6070 -24.1515  21.6205  23.7300  28.3428  28.5871
    28.9584  32.1962  40.8267  49.6096

          k = 0.5000-0.6000 0.2000 (   511 PWs)   bands (ev):

   -58.1679 -25.4772 -24.6955 -24.2525  22.3773  23.7881  26.4149  28.5979
    29.0993  33.9571  41.4716  47.3954

          k = 0.5000-0.7000 0.3000 (   506 PWs)   bands (ev):

   -58.1660 -25.3543 -24.7840 -24.3073  23.0895  23.9758  25.1425  28.5650
    29.0855  34.6798  43.0397  44.8904

          k = 0.4000-0.6000 0.3000 (   510 PWs)   bands (ev):

   -58.1412 -25.2947 -24.9515 -24.3270  23.0912  24.0687  25.2286  28.7605
    29.0521  37.1133  40.3930  43.9531

          k = 0.0000 0.0000 0.3000 (   518 PWs)   bands (ev):

   -58.4251 -24.5187 -24.3056 -24.3056  20.2520  25.8926  25.8926  26.6792
    26.8159  29.1593  52.8797  56.5304

          k = 0.0000-0.1000 0.4000 (   519 PWs)   bands (ev):

   -58.3136 -24.8781 -24.4533 -24.3493  21.6807  25.3356  25.5907  26.7964
    27.8603  29.6676  50.2172  53.5073

          k = 0.0000-0.2000 0.5000 (   515 PWs)   bands (ev):

   -58.2006 -25.2763 -24.5987 -24.3434  22.3684  24.9614  25.1179  27.5488
    29.4328  30.8719  45.5949  51.7194

          k = 0.0000-0.3000 0.6000 (   519 PWs)   bands (ev):

   -58.1300 -25.5214 -24.6877 -24.3373  22.1559  24.8273  25.3472  27.7403
    30.5545  33.1053  41.5985  50.8272

          k =-0.1000-0.1000 0.5000 (   516 PWs)   bands (ev):

   -58.2063 -25.1295 -24.6349 -24.4235  22.6987  24.3356  25.8390  27.0335
    28.8779  30.9319  48.1345  49.3776

          k =-0.1000-0.2000 0.6000 (   512 PWs)   bands (ev):

   -58.1186 -25.3597 -24.8040 -24.4273  22.8600  24.0413  25.4749  27.6992
    29.7815  33.5575  43.7964  47.3651

          k =-0.1000 0.7000-0.3000 (   513 PWs)   bands (ev):

   -58.0848 -25.4498 -24.8694 -24.4246  22.6242  24.3724  25.1202  27.8926
    30.2520  35.7959  40.8684  46.7362

          k =-0.2000 0.8000-0.3000 (   508 PWs)   bands (ev):

   -58.0676 -25.3149 -25.0664 -24.4385  23.3404  23.5251  24.9914  28.6171
    29.6056  37.2153  41.6496  43.6902

          k =-0.3000 0.3000 0.3000 (   516 PWs)   bands (ev):

   -58.2482 -25.2764 -24.3842 -24.3842  23.2990  24.0308  24.0308  28.6715
    28.6715  31.8201  47.4546  47.4546

          k = 0.6000-0.6000 0.3000 (   512 PWs)   bands (ev):

   -58.1800 -25.3462 -24.6370 -24.4143  23.3224  23.7536  25.0423  28.7771
    28.9287  34.4450  43.4631  46.1724

          k = 0.5000-0.5000 0.3000 (   512 PWs)   bands (ev):

   -58.1538 -25.3332 -24.7741 -24.4255  23.1163  23.6703  25.7249  28.8491
    29.0035  36.3971  40.7902  45.7181

          k = 0.5000-0.6000 0.4000 (   515 PWs)   bands (ev):

   -58.1485 -25.1845 -24.8510 -24.5413  23.5234  24.0939  24.8113  28.9343
    29.0087  37.6395  41.5503  43.5144

          k = 0.0000 0.0000 0.5000 (   510 PWs)   bands (ev):

   -58.2133 -24.9290 -24.6090 -24.6090  22.6053  24.5892  26.5713  26.5713
    27.9586  30.7344  50.8168  51.9126

          k = 0.0000-0.1000 0.6000 (   511 PWs)   bands (ev):

   -58.1119 -25.1807 -24.7623 -24.6609  22.9147  23.5884  26.6295  27.2952
    29.2241  32.7021  46.6521  49.4505

          k = 0.0000-0.2000 0.7000 (   509 PWs)   bands (ev):

   -58.0487 -25.3789 -24.8559 -24.6462  22.5200  23.4500  26.4690  27.6303
    30.3871  35.7735  42.0632  47.8832

          k =-0.1000-0.1000 0.7000 (   514 PWs)   bands (ev):

   -58.0349 -25.2655 -24.9634 -24.7062  22.7574  22.8240  26.7703  28.2794
    29.8427  35.6415  44.5469  45.3060

          k =-0.1000 0.8000-0.2000 (   508 PWs)   bands (ev):

   -58.0053 -25.2962 -25.0628 -24.6999  22.4421  22.7659  26.6622  28.8058
    30.1420  38.6782  41.1467  44.2918

          k = 0.5000-0.5000 0.5000 (   532 PWs)   bands (ev):

   -58.1419 -24.8771 -24.8771 -24.8771  24.1735  24.1735  24.1735  29.0316
    29.0316  41.0329  41.0329  41.0329

          k = 0.0000 0.0000 0.7000 (   510 PWs)   bands (ev):

   -58.0224 -25.1318 -24.9234 -24.9234  22.5366  22.5596  28.1391  28.1391
    29.3096  35.0010  46.5893  46.5893

          k = 0.0000-0.1000 0.8000 (   506 PWs)   bands (ev):

   -57.9667 -25.2347 -25.0214 -24.9482  21.9637  22.1196  28.4570  28.8240
    30.2244  38.2400  42.8144  44.7625

          k =-0.1000 0.9000-0.1000 (   493 PWs)   bands (ev):

   -57.9404 -25.1703 -25.1703 -24.9633  21.7457  21.7457  28.6474  30.0100
    30.0100  41.3401  41.3401  42.5386

          k = 0.0000 0.0000 0.9000 (   490 PWs)   bands (ev):

   -57.9156 -25.1522 -25.1219 -25.1219  21.3957  21.4336  29.9559  29.9559
    30.1830  40.6858  42.7050  42.7050

     the Fermi energy is    28.6418 ev

!    total energy              =    -254.16146059 Ry
     estimated scf accuracy    <          6.3E-09 Ry
     smearing contrib. (-TS)   =      -0.00029596 Ry
     internal energy E=F+TS    =    -254.16116463 Ry

     The total energy is F=E-TS. E is the sum of the following terms:
     one-electron contribution =     -73.57858757 Ry
     hartree contribution      =      52.41418382 Ry
     xc contribution           =     -34.77468363 Ry
     ewald contribution        =    -198.22207725 Ry

     convergence has been achieved in   6 iterations

     Writing output data file ./tempdir/fe.save/

     init_run     :      0.50s CPU      0.52s WALL (       1 calls)
     electrons    :      1.95s CPU      1.96s WALL (       1 calls)

     Called by init_run:
     wfcinit      :      0.07s CPU      0.07s WALL (       1 calls)
     potinit      :      0.01s CPU      0.01s WALL (       1 calls)
     hinit0       :      0.38s CPU      0.39s WALL (       1 calls)

     Called by electrons:
     c_bands      :      1.23s CPU      1.23s WALL (       7 calls)
     sum_band     :      0.48s CPU      0.49s WALL (       7 calls)
     v_of_rho     :      0.02s CPU      0.03s WALL (       7 calls)
     newd         :      0.22s CPU      0.22s WALL (       7 calls)
     mix_rho      :      0.01s CPU      0.01s WALL (       7 calls)

     Called by c_bands:
     init_us_2    :      0.03s CPU      0.03s WALL (     330 calls)
     cegterg      :      1.14s CPU      1.14s WALL (     154 calls)

     Called by *egterg:
     cdiaghg      :      0.06s CPU      0.06s WALL (     601 calls)
     h_psi        :      1.03s CPU      1.04s WALL (     645 calls)
     s_psi        :      0.01s CPU      0.01s WALL (     645 calls)
     g_psi        :      0.01s CPU      0.01s WALL (     469 calls)

     Called by h_psi:
     h_psi:calbec :      0.02s CPU      0.02s WALL (     645 calls)
     vloc_psi     :      0.99s CPU      1.00s WALL (     645 calls)
     add_vuspsi   :      0.02s CPU      0.02s WALL (     645 calls)

     General routines
     calbec       :      0.03s CPU      0.03s WALL (     799 calls)
     fft          :      0.03s CPU      0.03s WALL (      41 calls)
     ffts         :      0.00s CPU      0.00s WALL (      14 calls)
     fftw         :      1.05s CPU      1.05s WALL (   12148 calls)
     interpolate  :      0.01s CPU      0.01s WALL (       7 calls)

     Parallel routines

     PWSCF        :      2.53s CPU      2.56s WALL


   This run was terminated on:  22:11:45  18Apr2021            

=------------------------------------------------------------------------------=
   JOB DONE.
=------------------------------------------------------------------------------=
