
     Program PWSCF v.6.7GPU starts on 18Apr2021 at 22:12:20 

     This program is part of the open-source Quantum ESPRESSO suite
     for quantum simulation of materials; please cite
         "P. Giannozzi et al., J. Phys.:Condens. Matter 21 395502 (2009);
         "P. Giannozzi et al., J. Phys.:Condens. Matter 29 465901 (2017);
         "P. Giannozzi et al., J. Chem. Phys. 152 154105 (2020);
          URL http://www.quantum-espresso.org", 
     in publications or presentations arising from this work. More details at
     http://www.quantum-espresso.org/quote

     Parallel version (MPI & OpenMP), running on       2 processor cores
     Number of MPI processes:                 2
     Threads/MPI process:                     1

     MPI processes distributed on     1 nodes
     K-points division:     npool     =       2
     Waiting for input...
     Reading input from standard input

     Current dimensions of program PWSCF are:
     Max number of different atomic species (ntypx) = 10
     Max number of k-points (npk) =  40000
     Max angular momentum in pseudopotentials (lmaxx) =  3

     Subspace diagonalization in iterative solution of the eigenvalue problem:
     a serial algorithm will be used


     G-vector sticks info
     --------------------
     sticks:   dense  smooth     PW     G-vecs:    dense   smooth      PW
     Sum        1501     487    159                36753     6963    1253

     Using Slab Decomposition



     bravais-lattice index     =            3
     lattice parameter (alat)  =       5.6000  a.u.
     unit-cell volume          =      87.8080 (a.u.)^3
     number of atoms/cell      =            1
     number of atomic types    =            1
     number of electrons       =        16.00
     number of Kohn-Sham states=           12
     kinetic-energy cutoff     =      70.0000  Ry
     charge density cutoff     =     850.0000  Ry
     scf convergence threshold =      1.0E-08
     mixing beta               =       0.7000
     number of iterations used =            8  plain     mixing
     Exchange-correlation= LDA
                           (   1   1   0   0   0   0   0)

     celldm(1)=   5.600000  celldm(2)=   0.000000  celldm(3)=   0.000000
     celldm(4)=   0.000000  celldm(5)=   0.000000  celldm(6)=   0.000000

     crystal axes: (cart. coord. in units of alat)
               a(1) = (   0.500000   0.500000   0.500000 )  
               a(2) = (  -0.500000   0.500000   0.500000 )  
               a(3) = (  -0.500000  -0.500000   0.500000 )  

     reciprocal axes: (cart. coord. in units 2 pi/alat)
               b(1) = (  1.000000  0.000000  1.000000 )  
               b(2) = ( -1.000000  1.000000  0.000000 )  
               b(3) = (  0.000000 -1.000000  1.000000 )  


     PseudoPot. # 1 for Fe read from file:
     /home/pietro/repositories/materials-for-max-qe2021-online-school/pseudo/Fe.pz-spn-rrkjus_psl.0.2.1.UPF
     MD5 check sum: 3cbc4c6ff80f64c0ae98e6ac432cb3b7
     Pseudo is Ultrasoft + core correction, Zval = 16.0
     Generated using "atomic" code by A. Dal Corso  v.5.0.2 svn rev. 9415
     Using radial grid of 1191 points,  6 beta functions with: 
                l(1) =   0
                l(2) =   0
                l(3) =   1
                l(4) =   1
                l(5) =   2
                l(6) =   2
     Q(r) pseudized with 0 coefficients 


     atomic species   valence    mass     pseudopotential
        Fe            16.00    55.84500     Fe( 1.00)

     48 Sym. Ops., with inversion, found



   Cartesian axes

     site n.     atom                  positions (alat units)
         1           Fe  tau(   1) = (   0.0000000   0.0000000   0.0000000  )

     number of k points=    44  Marzari-Vanderbilt smearing, width (Ry)=  0.0200
                       cart. coord. in units 2pi/alat
        k(    1) = (   0.0000000   0.0000000   0.1000000), wk =   0.0120000
        k(    2) = (   0.0000000  -0.1000000   0.2000000), wk =   0.0480000
        k(    3) = (   0.0000000  -0.2000000   0.3000000), wk =   0.0480000
        k(    4) = (   0.0000000  -0.3000000   0.4000000), wk =   0.0480000
        k(    5) = (   0.0000000  -0.4000000   0.5000000), wk =   0.0480000
        k(    6) = (  -0.1000000   0.1000000   0.1000000), wk =   0.0160000
        k(    7) = (  -0.1000000  -0.1000000   0.3000000), wk =   0.0480000
        k(    8) = (  -0.1000000  -0.2000000   0.4000000), wk =   0.0960000
        k(    9) = (  -0.1000000  -0.3000000   0.5000000), wk =   0.0960000
        k(   10) = (  -0.1000000   0.6000000  -0.4000000), wk =   0.0480000
        k(   11) = (  -0.2000000   0.2000000   0.1000000), wk =   0.0480000
        k(   12) = (  -0.2000000  -0.2000000   0.5000000), wk =   0.0480000
        k(   13) = (  -0.2000000   0.7000000  -0.4000000), wk =   0.0960000
        k(   14) = (  -0.3000000   0.3000000   0.1000000), wk =   0.0480000
        k(   15) = (  -0.3000000   0.2000000   0.2000000), wk =   0.0480000
        k(   16) = (  -0.3000000   0.7000000  -0.3000000), wk =   0.0160000
        k(   17) = (  -0.4000000   0.4000000   0.1000000), wk =   0.0480000
        k(   18) = (  -0.4000000   0.3000000   0.2000000), wk =   0.0960000
        k(   19) = (   0.5000000  -0.5000000   0.1000000), wk =   0.0240000
        k(   20) = (   0.5000000  -0.6000000   0.2000000), wk =   0.0960000
        k(   21) = (   0.5000000  -0.7000000   0.3000000), wk =   0.0480000
        k(   22) = (   0.4000000  -0.6000000   0.3000000), wk =   0.0480000
        k(   23) = (   0.0000000   0.0000000   0.3000000), wk =   0.0120000
        k(   24) = (   0.0000000  -0.1000000   0.4000000), wk =   0.0480000
        k(   25) = (   0.0000000  -0.2000000   0.5000000), wk =   0.0480000
        k(   26) = (   0.0000000  -0.3000000   0.6000000), wk =   0.0480000
        k(   27) = (  -0.1000000  -0.1000000   0.5000000), wk =   0.0480000
        k(   28) = (  -0.1000000  -0.2000000   0.6000000), wk =   0.0960000
        k(   29) = (  -0.1000000   0.7000000  -0.3000000), wk =   0.0480000
        k(   30) = (  -0.2000000   0.8000000  -0.3000000), wk =   0.0480000
        k(   31) = (  -0.3000000   0.3000000   0.3000000), wk =   0.0160000
        k(   32) = (   0.6000000  -0.6000000   0.3000000), wk =   0.0480000
        k(   33) = (   0.5000000  -0.5000000   0.3000000), wk =   0.0240000
        k(   34) = (   0.5000000  -0.6000000   0.4000000), wk =   0.0480000
        k(   35) = (   0.0000000   0.0000000   0.5000000), wk =   0.0120000
        k(   36) = (   0.0000000  -0.1000000   0.6000000), wk =   0.0480000
        k(   37) = (   0.0000000  -0.2000000   0.7000000), wk =   0.0480000
        k(   38) = (  -0.1000000  -0.1000000   0.7000000), wk =   0.0480000
        k(   39) = (  -0.1000000   0.8000000  -0.2000000), wk =   0.0480000
        k(   40) = (   0.5000000  -0.5000000   0.5000000), wk =   0.0040000
        k(   41) = (   0.0000000   0.0000000   0.7000000), wk =   0.0120000
        k(   42) = (   0.0000000  -0.1000000   0.8000000), wk =   0.0480000
        k(   43) = (  -0.1000000   0.9000000  -0.1000000), wk =   0.0160000
        k(   44) = (   0.0000000   0.0000000   0.9000000), wk =   0.0120000

     Dense  grid:    36753 G-vectors     FFT dimensions: (  45,  45,  45)

     Smooth grid:     6963 G-vectors     FFT dimensions: (  25,  25,  25)

     Estimated max dynamical RAM per process >      80.26 MB

     Estimated total dynamical RAM >     151.54 MB

     Check: negative core charge=   -0.000010

     Initial potential from superposition of free atoms

     starting charge   15.99965, renormalised to   16.00000
     Starting wfcs are   13 randomized atomic wfcs

     total cpu time spent up to now is        0.7 secs

     Self-consistent Calculation

     iteration #  1     ecut=    70.00 Ry     beta= 0.70
     Davidson diagonalization with overlap
     ethr =  1.00E-02,  avg # of iterations =  2.9

     Threshold (ethr) on eigenvalues was too large:
     Diagonalizing with lowered threshold

     Davidson diagonalization with overlap
     ethr =  1.53E-04,  avg # of iterations =  3.9

     total cpu time spent up to now is        1.6 secs

     total energy              =    -254.16094965 Ry
     estimated scf accuracy    <       0.02390985 Ry

     iteration #  2     ecut=    70.00 Ry     beta= 0.70
     Davidson diagonalization with overlap
     ethr =  1.49E-04,  avg # of iterations =  2.1

     total cpu time spent up to now is        2.1 secs

     total energy              =    -254.16016324 Ry
     estimated scf accuracy    <       0.09181742 Ry

     iteration #  3     ecut=    70.00 Ry     beta= 0.70
     Davidson diagonalization with overlap
     ethr =  1.49E-04,  avg # of iterations =  2.0

     total cpu time spent up to now is        2.6 secs

     total energy              =    -254.17473564 Ry
     estimated scf accuracy    <       0.00004660 Ry

     iteration #  4     ecut=    70.00 Ry     beta= 0.70
     Davidson diagonalization with overlap
     ethr =  2.91E-07,  avg # of iterations =  6.6

     total cpu time spent up to now is        3.3 secs

     total energy              =    -254.17480781 Ry
     estimated scf accuracy    <       0.00003600 Ry

     iteration #  5     ecut=    70.00 Ry     beta= 0.70
     Davidson diagonalization with overlap
     ethr =  2.25E-07,  avg # of iterations =  1.5

     total cpu time spent up to now is        3.7 secs

     total energy              =    -254.17480945 Ry
     estimated scf accuracy    <       0.00000322 Ry

     iteration #  6     ecut=    70.00 Ry     beta= 0.70
     Davidson diagonalization with overlap
     ethr =  2.01E-08,  avg # of iterations =  2.2

     total cpu time spent up to now is        4.2 secs

     total energy              =    -254.17481023 Ry
     estimated scf accuracy    <       0.00000005 Ry

     iteration #  7     ecut=    70.00 Ry     beta= 0.70
     Davidson diagonalization with overlap
     ethr =  3.00E-10,  avg # of iterations =  4.1

     total cpu time spent up to now is        4.8 secs

     End of self-consistent calculation

          k = 0.0000 0.0000 0.1000 (   903 PWs)   bands (ev):

   -71.1164 -37.4113 -37.4068 -37.4068   7.5424  13.7446  13.7446  13.7970
    14.9569  15.0713  37.3884  38.2964

          k = 0.0000-0.1000 0.2000 (   881 PWs)   bands (ev):

   -71.1078 -37.4589 -37.4237 -37.4071   8.2676  13.5807  13.7093  14.1523
    14.7703  15.1232  34.0924  36.6396

          k = 0.0000-0.2000 0.3000 (   876 PWs)   bands (ev):

   -71.0940 -37.5392 -37.4515 -37.4066   9.5590  13.2996  13.5816  14.7306
    14.7997  15.1802  29.6505  34.6227

          k = 0.0000-0.3000 0.4000 (   868 PWs)   bands (ev):

   -71.0802 -37.6187 -37.4790 -37.4058  10.8474  13.0289  13.8060  14.8930
    15.3021  15.5220  25.4531  33.0589

          k = 0.0000-0.4000 0.5000 (   856 PWs)   bands (ev):

   -71.0716 -37.6673 -37.4956 -37.4051  11.3134  12.8666  14.5434  14.9724
    15.9519  16.0173  22.2865  32.7928

          k =-0.1000 0.1000 0.1000 (   884 PWs)   bands (ev):

   -71.1120 -37.4441 -37.4065 -37.4065   7.9100  13.6336  13.6336  14.0814
    14.9872  14.9872  35.9856  35.9856

          k =-0.1000-0.1000 0.3000 (   880 PWs)   bands (ev):

   -71.0968 -37.5136 -37.4428 -37.4192   9.2724  13.5042  13.5289  14.5761
    14.6318  15.2367  31.8398  32.7396

          k =-0.1000-0.2000 0.4000 (   866 PWs)   bands (ev):

   -71.0831 -37.5838 -37.4742 -37.4216  10.6220  13.2057  13.4179  14.6461
    15.2291  15.5641  27.7854  30.6830

          k =-0.1000-0.3000 0.5000 (   869 PWs)   bands (ev):

   -71.0721 -37.6408 -37.5023 -37.4216  11.4937  13.0165  13.6572  14.8439
    15.4917  16.6471  23.8965  29.5279

          k =-0.1000 0.6000-0.4000 (   860 PWs)   bands (ev):

   -71.0678 -37.6620 -37.5127 -37.4213  11.6332  12.9571  13.9267  14.8780
    15.7235  17.6869  21.7980  29.1073

          k =-0.2000 0.2000 0.1000 (   876 PWs)   bands (ev):

   -71.1007 -37.5099 -37.4293 -37.4063   8.9476  13.3680  13.4945  14.6572
    14.8756  15.0530  31.8963  34.1353

          k =-0.2000-0.2000 0.5000 (   869 PWs)   bands (ev):

   -71.0722 -37.6194 -37.5120 -37.4317  11.7005  12.9052  13.3826  14.7444
    15.3436  16.8652  26.1947  26.6266

          k =-0.2000 0.7000-0.4000 (   868 PWs)   bands (ev):

   -71.0655 -37.6339 -37.5458 -37.4345  12.1473  12.9014  13.3147  14.9318
    15.4386  18.8131  22.8313  25.6518

          k =-0.3000 0.3000 0.1000 (   872 PWs)   bands (ev):

   -71.0867 -37.5858 -37.4620 -37.4067  10.3541  13.0719  13.4447  14.9044
    15.1249  15.4445  27.5251  32.5306

          k =-0.3000 0.2000 0.2000 (   870 PWs)   bands (ev):

   -71.0892 -37.5701 -37.4461 -37.4193  10.1689  13.1640  13.1708  14.8852
    15.1234  15.4798  29.7993  30.4406

          k =-0.3000 0.7000-0.3000 (   871 PWs)   bands (ev):

   -71.0630 -37.5977 -37.5977 -37.4380  12.6101  12.8894  12.8894  15.2131
    15.2131  21.4626  21.4626  23.4126

          k =-0.4000 0.4000 0.1000 (   864 PWs)   bands (ev):

   -71.0754 -37.6460 -37.4889 -37.4067  11.2594  12.8495  14.1452  15.0029
    15.1847  16.3291  23.6958  31.4441

          k =-0.4000 0.3000 0.2000 (   869 PWs)   bands (ev):

   -71.0777 -37.6190 -37.4826 -37.4240  11.4086  12.8969  13.2245  14.9566
    15.2068  16.5884  25.8855  28.7718

          k = 0.5000-0.5000 0.1000 (   858 PWs)   bands (ev):

   -71.0710 -37.6687 -37.4991 -37.4067  11.4106  12.7677  14.8543  15.0301
    15.2090  17.0164  21.7434  31.0593

          k = 0.5000-0.6000 0.2000 (   864 PWs)   bands (ev):

   -71.0706 -37.6439 -37.5112 -37.4255  11.7912  12.7692  13.8197  15.0475
    15.2677  18.0277  22.5363  28.0023

          k = 0.5000-0.7000 0.3000 (   859 PWs)   bands (ev):

   -71.0704 -37.6230 -37.5226 -37.4367  12.1672  12.7929  13.1862  15.0446
    15.2577  18.3535  24.5216  25.1053

          k = 0.4000-0.6000 0.3000 (   862 PWs)   bands (ev):

   -71.0676 -37.6117 -37.5526 -37.4403  12.2939  12.8120  13.2794  15.1246
    15.2509  20.2138  22.0866  24.5109

          k = 0.0000 0.0000 0.3000 (   883 PWs)   bands (ev):

   -71.0997 -37.4695 -37.4415 -37.4415   8.9558  13.7873  13.7873  14.1698
    14.3387  15.2934  33.8679  34.9538

          k = 0.0000-0.1000 0.4000 (   872 PWs)   bands (ev):

   -71.0865 -37.5354 -37.4698 -37.4470  10.1585  13.5856  13.6530  14.2575
    14.7250  15.4746  30.1867  32.8937

          k = 0.0000-0.2000 0.5000 (   866 PWs)   bands (ev):

   -71.0732 -37.6092 -37.4978 -37.4445  11.3276  13.2887  13.4326  14.5837
    15.4569  16.0275  25.9364  31.2242

          k = 0.0000-0.3000 0.6000 (   860 PWs)   bands (ev):

   -71.0651 -37.6545 -37.5151 -37.4427  11.7332  13.2944  13.4213  14.6670
    15.9712  17.5049  22.5302  30.2409

          k =-0.1000-0.1000 0.5000 (   872 PWs)   bands (ev):

   -71.0737 -37.5827 -37.5029 -37.4617  11.2727  13.1436  13.7496  14.3524
    15.1952  16.0399  28.3797  28.7570

          k =-0.1000-0.2000 0.6000 (   864 PWs)   bands (ev):

   -71.0634 -37.6268 -37.5338 -37.4624  12.0021  12.8635  13.5873  14.6524
    15.6010  17.6005  24.5311  27.4041

          k =-0.1000 0.7000-0.3000 (   863 PWs)   bands (ev):

   -71.0594 -37.6442 -37.5459 -37.4619  12.1025  12.9730  13.4217  14.7327
    15.8267  19.3023  22.0251  26.9587

          k =-0.2000 0.8000-0.3000 (   872 PWs)   bands (ev):

   -71.0573 -37.6216 -37.5797 -37.4666  12.5186  12.5662  13.3327  15.0734
    15.5223  20.0720  23.2718  24.1336

          k =-0.3000 0.3000 0.3000 (   869 PWs)   bands (ev):

   -71.0799 -37.6099 -37.4503 -37.4503  11.4196  12.8859  12.8859  15.0931
    15.0931  16.6138  28.2577  28.2577

          k = 0.6000-0.6000 0.3000 (   867 PWs)   bands (ev):

   -71.0723 -37.6211 -37.4962 -37.4540  12.2098  12.7249  13.0732  15.1309
    15.1973  18.1920  24.5457  27.2938

          k = 0.5000-0.5000 0.3000 (   866 PWs)   bands (ev):

   -71.0694 -37.6174 -37.5218 -37.4552  12.2237  12.6738  13.4821  15.1580
    15.2268  19.7588  22.0971  27.3408

          k = 0.5000-0.6000 0.4000 (   870 PWs)   bands (ev):

   -71.0689 -37.5913 -37.5320 -37.4767  12.5235  12.7879  13.0289  15.1981
    15.2285  20.4535  23.4637  24.2040

          k = 0.0000 0.0000 0.5000 (   875 PWs)   bands (ev):

   -71.0743 -37.5428 -37.4994 -37.4994  11.1014  13.3293  14.1079  14.1079
    14.7844  15.9113  30.6021  30.6022

          k = 0.0000-0.1000 0.6000 (   868 PWs)   bands (ev):

   -71.0621 -37.5943 -37.5286 -37.5063  11.8627  12.7956  14.1442  14.4556
    15.3677  17.0029  26.8103  28.8008

          k = 0.0000-0.2000 0.7000 (   864 PWs)   bands (ev):

   -71.0545 -37.6338 -37.5467 -37.5026  12.1066  12.5729  14.0726  14.5998
    15.8971  19.1500  23.1423  27.7493

          k =-0.1000-0.1000 0.7000 (   861 PWs)   bands (ev):

   -71.0526 -37.6138 -37.5647 -37.5162  12.1427  12.3852  14.2021  14.9199
    15.6450  18.9579  25.3863  25.6758

          k =-0.1000 0.8000-0.2000 (   866 PWs)   bands (ev):

   -71.0490 -37.6221 -37.5825 -37.5158  12.1674  12.2776  14.1414  15.1624
    15.7835  21.2760  22.5866  25.0601

          k = 0.5000-0.5000 0.5000 (   868 PWs)   bands (ev):

   -71.0684 -37.5354 -37.5354 -37.5354  12.8035  12.8035  12.8035  15.2378
    15.2378  23.1022  23.1022  23.1022

          k = 0.0000 0.0000 0.7000 (   868 PWs)   bands (ev):

   -71.0509 -37.5878 -37.5592 -37.5592  11.9847  12.3309  14.8538  14.8538
    15.4123  18.5223  26.8551  26.8551

          k = 0.0000-0.1000 0.8000 (   859 PWs)   bands (ev):

   -71.0439 -37.6128 -37.5779 -37.5618  11.9482  12.0182  15.0110  15.1720
    15.8247  20.8988  24.1131  25.6948

          k =-0.1000 0.9000-0.1000 (   862 PWs)   bands (ev):

   -71.0406 -37.6039 -37.6039 -37.5670  11.8636  11.8636  15.0957  15.7268
    15.7268  23.2922  23.2922  23.8888

          k = 0.0000 0.0000 0.9000 (   856 PWs)   bands (ev):

   -71.0374 -37.6012 -37.5970 -37.5970  11.7132  11.7269  15.7032  15.7032
    15.8064  22.8718  24.4326  24.4326

     the Fermi energy is    15.0788 ev

!    total energy              =    -254.17481025 Ry
     estimated scf accuracy    <          6.9E-09 Ry
     smearing contrib. (-TS)   =      -0.00231940 Ry
     internal energy E=F+TS    =    -254.17249085 Ry

     The total energy is F=E-TS. E is the sum of the following terms:
     one-electron contribution =    -123.21623577 Ry
     hartree contribution      =      69.62046429 Ry
     xc contribution           =     -34.21176168 Ry
     ewald contribution        =    -166.36495769 Ry

     convergence has been achieved in   7 iterations

     Writing output data file ./tempdir/fe.save/

     init_run     :      0.60s CPU      0.62s WALL (       1 calls)
     electrons    :      3.79s CPU      4.07s WALL (       1 calls)

     Called by init_run:
     wfcinit      :      0.13s CPU      0.13s WALL (       1 calls)
     potinit      :      0.01s CPU      0.01s WALL (       1 calls)
     hinit0       :      0.39s CPU      0.39s WALL (       1 calls)

     Called by electrons:
     c_bands      :      2.39s CPU      2.42s WALL (       8 calls)
     sum_band     :      0.90s CPU      1.03s WALL (       8 calls)
     v_of_rho     :      0.04s CPU      0.05s WALL (       8 calls)
     newd         :      0.47s CPU      0.59s WALL (       8 calls)
     mix_rho      :      0.02s CPU      0.02s WALL (       8 calls)

     Called by c_bands:
     init_us_2    :      0.06s CPU      0.06s WALL (     374 calls)
     cegterg      :      2.23s CPU      2.26s WALL (     176 calls)

     Called by *egterg:
     cdiaghg      :      0.08s CPU      0.08s WALL (     750 calls)
     h_psi        :      2.04s CPU      2.07s WALL (     794 calls)
     s_psi        :      0.03s CPU      0.03s WALL (     794 calls)
     g_psi        :      0.01s CPU      0.01s WALL (     596 calls)

     Called by h_psi:
     h_psi:calbec :      0.04s CPU      0.04s WALL (     794 calls)
     vloc_psi     :      1.96s CPU      1.99s WALL (     794 calls)
     add_vuspsi   :      0.03s CPU      0.03s WALL (     794 calls)

     General routines
     calbec       :      0.05s CPU      0.05s WALL (     970 calls)
     fft          :      0.07s CPU      0.07s WALL (      47 calls)
     ffts         :      0.00s CPU      0.00s WALL (      16 calls)
     fftw         :      2.11s CPU      2.14s WALL (   14542 calls)
     interpolate  :      0.02s CPU      0.02s WALL (       8 calls)

     Parallel routines

     PWSCF        :      4.46s CPU      4.77s WALL


   This run was terminated on:  22:12:25  18Apr2021            

=------------------------------------------------------------------------------=
   JOB DONE.
=------------------------------------------------------------------------------=
