
     Program PWSCF v.6.7GPU starts on 18Apr2021 at 22:11:49 

     This program is part of the open-source Quantum ESPRESSO suite
     for quantum simulation of materials; please cite
         "P. Giannozzi et al., J. Phys.:Condens. Matter 21 395502 (2009);
         "P. Giannozzi et al., J. Phys.:Condens. Matter 29 465901 (2017);
         "P. Giannozzi et al., J. Chem. Phys. 152 154105 (2020);
          URL http://www.quantum-espresso.org", 
     in publications or presentations arising from this work. More details at
     http://www.quantum-espresso.org/quote

     Parallel version (MPI & OpenMP), running on       2 processor cores
     Number of MPI processes:                 2
     Threads/MPI process:                     1

     MPI processes distributed on     1 nodes
     K-points division:     npool     =       2
     Waiting for input...
     Reading input from standard input

     Current dimensions of program PWSCF are:
     Max number of different atomic species (ntypx) = 10
     Max number of k-points (npk) =  40000
     Max angular momentum in pseudopotentials (lmaxx) =  3

     Subspace diagonalization in iterative solution of the eigenvalue problem:
     a serial algorithm will be used


     G-vector sticks info
     --------------------
     sticks:   dense  smooth     PW     G-vecs:    dense   smooth      PW
     Sum        1151     383    129                24643     4729     887

     Using Slab Decomposition



     bravais-lattice index     =            3
     lattice parameter (alat)  =       4.9000  a.u.
     unit-cell volume          =      58.8245 (a.u.)^3
     number of atoms/cell      =            1
     number of atomic types    =            1
     number of electrons       =        16.00
     number of Kohn-Sham states=           12
     kinetic-energy cutoff     =      70.0000  Ry
     charge density cutoff     =     850.0000  Ry
     scf convergence threshold =      1.0E-08
     mixing beta               =       0.7000
     number of iterations used =            8  plain     mixing
     Exchange-correlation= LDA
                           (   1   1   0   0   0   0   0)

     celldm(1)=   4.900000  celldm(2)=   0.000000  celldm(3)=   0.000000
     celldm(4)=   0.000000  celldm(5)=   0.000000  celldm(6)=   0.000000

     crystal axes: (cart. coord. in units of alat)
               a(1) = (   0.500000   0.500000   0.500000 )  
               a(2) = (  -0.500000   0.500000   0.500000 )  
               a(3) = (  -0.500000  -0.500000   0.500000 )  

     reciprocal axes: (cart. coord. in units 2 pi/alat)
               b(1) = (  1.000000  0.000000  1.000000 )  
               b(2) = ( -1.000000  1.000000  0.000000 )  
               b(3) = (  0.000000 -1.000000  1.000000 )  


     PseudoPot. # 1 for Fe read from file:
     /home/pietro/repositories/materials-for-max-qe2021-online-school/pseudo/Fe.pz-spn-rrkjus_psl.0.2.1.UPF
     MD5 check sum: 3cbc4c6ff80f64c0ae98e6ac432cb3b7
     Pseudo is Ultrasoft + core correction, Zval = 16.0
     Generated using "atomic" code by A. Dal Corso  v.5.0.2 svn rev. 9415
     Using radial grid of 1191 points,  6 beta functions with: 
                l(1) =   0
                l(2) =   0
                l(3) =   1
                l(4) =   1
                l(5) =   2
                l(6) =   2
     Q(r) pseudized with 0 coefficients 


     atomic species   valence    mass     pseudopotential
        Fe            16.00    55.84500     Fe( 1.00)

     48 Sym. Ops., with inversion, found



   Cartesian axes

     site n.     atom                  positions (alat units)
         1           Fe  tau(   1) = (   0.0000000   0.0000000   0.0000000  )

     number of k points=    44  Marzari-Vanderbilt smearing, width (Ry)=  0.0200
                       cart. coord. in units 2pi/alat
        k(    1) = (   0.0000000   0.0000000   0.1000000), wk =   0.0120000
        k(    2) = (   0.0000000  -0.1000000   0.2000000), wk =   0.0480000
        k(    3) = (   0.0000000  -0.2000000   0.3000000), wk =   0.0480000
        k(    4) = (   0.0000000  -0.3000000   0.4000000), wk =   0.0480000
        k(    5) = (   0.0000000  -0.4000000   0.5000000), wk =   0.0480000
        k(    6) = (  -0.1000000   0.1000000   0.1000000), wk =   0.0160000
        k(    7) = (  -0.1000000  -0.1000000   0.3000000), wk =   0.0480000
        k(    8) = (  -0.1000000  -0.2000000   0.4000000), wk =   0.0960000
        k(    9) = (  -0.1000000  -0.3000000   0.5000000), wk =   0.0960000
        k(   10) = (  -0.1000000   0.6000000  -0.4000000), wk =   0.0480000
        k(   11) = (  -0.2000000   0.2000000   0.1000000), wk =   0.0480000
        k(   12) = (  -0.2000000  -0.2000000   0.5000000), wk =   0.0480000
        k(   13) = (  -0.2000000   0.7000000  -0.4000000), wk =   0.0960000
        k(   14) = (  -0.3000000   0.3000000   0.1000000), wk =   0.0480000
        k(   15) = (  -0.3000000   0.2000000   0.2000000), wk =   0.0480000
        k(   16) = (  -0.3000000   0.7000000  -0.3000000), wk =   0.0160000
        k(   17) = (  -0.4000000   0.4000000   0.1000000), wk =   0.0480000
        k(   18) = (  -0.4000000   0.3000000   0.2000000), wk =   0.0960000
        k(   19) = (   0.5000000  -0.5000000   0.1000000), wk =   0.0240000
        k(   20) = (   0.5000000  -0.6000000   0.2000000), wk =   0.0960000
        k(   21) = (   0.5000000  -0.7000000   0.3000000), wk =   0.0480000
        k(   22) = (   0.4000000  -0.6000000   0.3000000), wk =   0.0480000
        k(   23) = (   0.0000000   0.0000000   0.3000000), wk =   0.0120000
        k(   24) = (   0.0000000  -0.1000000   0.4000000), wk =   0.0480000
        k(   25) = (   0.0000000  -0.2000000   0.5000000), wk =   0.0480000
        k(   26) = (   0.0000000  -0.3000000   0.6000000), wk =   0.0480000
        k(   27) = (  -0.1000000  -0.1000000   0.5000000), wk =   0.0480000
        k(   28) = (  -0.1000000  -0.2000000   0.6000000), wk =   0.0960000
        k(   29) = (  -0.1000000   0.7000000  -0.3000000), wk =   0.0480000
        k(   30) = (  -0.2000000   0.8000000  -0.3000000), wk =   0.0480000
        k(   31) = (  -0.3000000   0.3000000   0.3000000), wk =   0.0160000
        k(   32) = (   0.6000000  -0.6000000   0.3000000), wk =   0.0480000
        k(   33) = (   0.5000000  -0.5000000   0.3000000), wk =   0.0240000
        k(   34) = (   0.5000000  -0.6000000   0.4000000), wk =   0.0480000
        k(   35) = (   0.0000000   0.0000000   0.5000000), wk =   0.0120000
        k(   36) = (   0.0000000  -0.1000000   0.6000000), wk =   0.0480000
        k(   37) = (   0.0000000  -0.2000000   0.7000000), wk =   0.0480000
        k(   38) = (  -0.1000000  -0.1000000   0.7000000), wk =   0.0480000
        k(   39) = (  -0.1000000   0.8000000  -0.2000000), wk =   0.0480000
        k(   40) = (   0.5000000  -0.5000000   0.5000000), wk =   0.0040000
        k(   41) = (   0.0000000   0.0000000   0.7000000), wk =   0.0120000
        k(   42) = (   0.0000000  -0.1000000   0.8000000), wk =   0.0480000
        k(   43) = (  -0.1000000   0.9000000  -0.1000000), wk =   0.0160000
        k(   44) = (   0.0000000   0.0000000   0.9000000), wk =   0.0120000

     Dense  grid:    24643 G-vectors     FFT dimensions: (  40,  40,  40)

     Smooth grid:     4729 G-vectors     FFT dimensions: (  24,  24,  24)

     Estimated max dynamical RAM per process >      54.78 MB

     Estimated total dynamical RAM >     103.55 MB

     Check: negative core charge=   -0.000012

     Initial potential from superposition of free atoms

     starting charge   15.99965, renormalised to   16.00000
     Starting wfcs are   13 randomized atomic wfcs

     total cpu time spent up to now is        0.6 secs

     Self-consistent Calculation

     iteration #  1     ecut=    70.00 Ry     beta= 0.70
     Davidson diagonalization with overlap
     ethr =  1.00E-02,  avg # of iterations =  3.5

     Threshold (ethr) on eigenvalues was too large:
     Diagonalizing with lowered threshold

     Davidson diagonalization with overlap
     ethr =  3.30E-04,  avg # of iterations =  3.4

     total cpu time spent up to now is        1.2 secs

     total energy              =    -254.17718532 Ry
     estimated scf accuracy    <       0.05333066 Ry

     iteration #  2     ecut=    70.00 Ry     beta= 0.70
     Davidson diagonalization with overlap
     ethr =  3.33E-04,  avg # of iterations =  2.0

     total cpu time spent up to now is        1.5 secs

     total energy              =    -254.18800536 Ry
     estimated scf accuracy    <       0.09544103 Ry

     iteration #  3     ecut=    70.00 Ry     beta= 0.70
     Davidson diagonalization with overlap
     ethr =  3.33E-04,  avg # of iterations =  2.0

     total cpu time spent up to now is        1.8 secs

     total energy              =    -254.20556311 Ry
     estimated scf accuracy    <       0.00009582 Ry

     iteration #  4     ecut=    70.00 Ry     beta= 0.70
     Davidson diagonalization with overlap
     ethr =  5.99E-07,  avg # of iterations =  5.5

     total cpu time spent up to now is        2.2 secs

     total energy              =    -254.20566596 Ry
     estimated scf accuracy    <       0.00004164 Ry

     iteration #  5     ecut=    70.00 Ry     beta= 0.70
     Davidson diagonalization with overlap
     ethr =  2.60E-07,  avg # of iterations =  1.8

     total cpu time spent up to now is        2.5 secs

     total energy              =    -254.20566923 Ry
     estimated scf accuracy    <       0.00000301 Ry

     iteration #  6     ecut=    70.00 Ry     beta= 0.70
     Davidson diagonalization with overlap
     ethr =  1.88E-08,  avg # of iterations =  2.8

     total cpu time spent up to now is        2.9 secs

     End of self-consistent calculation

          k = 0.0000 0.0000 0.1000 (   587 PWs)   bands (ev):

   -62.0839 -27.9595 -27.9400 -27.9400  14.9899  22.4008  22.4008  22.4928
    24.5000  24.7277  51.1547  52.2665

          k = 0.0000-0.1000 0.2000 (   586 PWs)   bands (ev):

   -62.0390 -28.1491 -28.0014 -27.9460  15.9655  22.0962  22.3268  23.1200
    24.1410  24.8348  48.3740  51.0339

          k = 0.0000-0.2000 0.3000 (   590 PWs)   bands (ev):

   -61.9657 -28.4592 -28.1005 -27.9469  17.5297  21.5858  22.1386  24.0991
    24.2674  24.9605  44.0516  48.6801

          k = 0.0000-0.3000 0.4000 (   582 PWs)   bands (ev):

   -61.8918 -28.7614 -28.1982 -27.9477  18.5603  21.1040  22.7626  24.4386
    25.2181  25.5587  39.4485  46.6614

          k = 0.0000-0.4000 0.5000 (   580 PWs)   bands (ev):

   -61.8457 -28.9461 -28.2580 -27.9479  18.6317  20.8192  23.8679  24.6001
    26.1569  26.4555  35.9311  45.5206

          k =-0.1000 0.1000 0.1000 (   594 PWs)   bands (ev):

   -62.0611 -28.0887 -27.9417 -27.9417  15.4895  22.1932  22.1932  23.0023
    24.5629  24.5629  50.2118  50.2118

          k =-0.1000-0.1000 0.3000 (   589 PWs)   bands (ev):

   -61.9807 -28.3602 -28.0727 -27.9896  17.2403  21.9666  21.9718  23.7859
    23.9755  25.0772  46.0185  47.8766

          k =-0.1000-0.2000 0.4000 (   585 PWs)   bands (ev):

   -61.9082 -28.6277 -28.1882 -28.0025  18.6642  21.4046  21.8896  23.9509
    25.0553  25.6909  41.9855  45.2716

          k =-0.1000-0.3000 0.5000 (   579 PWs)   bands (ev):

   -61.8490 -28.8409 -28.2878 -28.0049  19.1007  21.0922  22.4224  24.3404
    25.5506  27.4249  37.6360  43.8176

          k =-0.1000 0.6000-0.4000 (   586 PWs)   bands (ev):

   -61.8264 -28.9221 -28.3266 -28.0056  19.0433  20.9884  22.8135  24.4179
    25.9330  28.7185  35.3438  43.2835

          k =-0.2000 0.2000 0.1000 (   588 PWs)   bands (ev):

   -62.0011 -28.3428 -28.0242 -27.9449  16.8383  21.7081  21.9361  24.0304
    24.3633  24.6973  46.2969  48.4287

          k =-0.2000-0.2000 0.5000 (   580 PWs)   bands (ev):

   -61.8504 -28.7574 -28.3340 -28.0368  19.6719  20.8892  21.8686  24.1394
    25.2941  27.8268  39.8525  41.0545

          k =-0.2000 0.7000-0.4000 (   580 PWs)   bands (ev):

   -61.8144 -28.8100 -28.4619 -28.0470  19.8722  20.9385  21.7624  24.4999
    25.4426  30.4981  36.1895  39.6247

          k =-0.3000 0.3000 0.1000 (   576 PWs)   bands (ev):

   -61.9262 -28.6353 -28.1406 -27.9489  18.3347  21.1816  22.0140  24.4457
    24.8470  25.4306  41.7106  46.4849

          k =-0.3000 0.2000 0.2000 (   592 PWs)   bands (ev):

   -61.9395 -28.5734 -28.0914 -27.9936  18.3164  21.3386  21.3867  24.3910
    24.8517  25.5032  43.8384  44.9953

          k =-0.3000 0.7000-0.3000 (   571 PWs)   bands (ev):

   -61.8012 -28.6657 -28.6657 -28.0575  20.5032  20.9975  20.9975  25.0181
    25.0181  33.9398  33.9398  37.4792

          k =-0.4000 0.4000 0.1000 (   580 PWs)   bands (ev):

   -61.8653 -28.8656 -28.2375 -27.9529  18.7727  20.7942  23.3851  24.6511
    24.9764  26.9069  37.4433  45.0205

          k =-0.4000 0.3000 0.2000 (   581 PWs)   bands (ev):

   -61.8774 -28.7580 -28.2265 -28.0152  19.3737  20.8943  21.7175  24.5421
    25.0272  27.3658  39.7519  42.9498

          k = 0.5000-0.5000 0.1000 (   586 PWs)   bands (ev):

   -61.8419 -28.9527 -28.2748 -27.9543  18.7283  20.6531  24.3912  24.7164
    25.0304  27.7921  35.3356  44.4812

          k = 0.5000-0.6000 0.2000 (   580 PWs)   bands (ev):

   -61.8389 -28.8560 -28.3305 -28.0236  19.3689  20.6835  22.7512  24.7312
    25.1417  29.3407  36.0352  41.9732

          k = 0.5000-0.7000 0.3000 (   581 PWs)   bands (ev):

   -61.8378 -28.7736 -28.3863 -28.0625  19.9977  20.7949  21.6754  24.7096
    25.1297  29.9530  37.7290  39.2852

          k = 0.4000-0.6000 0.3000 (   576 PWs)   bands (ev):

   -61.8226 -28.7313 -28.4999 -28.0759  20.0363  20.8579  21.7784  24.8674
    25.1052  32.2199  35.1474  38.4044

          k = 0.0000 0.0000 0.3000 (   587 PWs)   bands (ev):

   -61.9965 -28.2024 -28.0651 -28.0651  16.8610  22.4663  22.4663  23.1348
    23.2995  25.1914  47.5631  50.5910

          k = 0.0000-0.1000 0.4000 (   590 PWs)   bands (ev):

   -61.9273 -28.4476 -28.1679 -28.0936  18.2672  22.0218  22.2164  23.2410
    24.1219  25.5832  44.6168  47.8807

          k = 0.0000-0.2000 0.5000 (   580 PWs)   bands (ev):

   -61.8574 -28.7205 -28.2686 -28.0879  19.2025  21.6202  21.8208  23.8579
    25.4350  26.5633  39.9864  46.3168

          k = 0.0000-0.3000 0.6000 (   575 PWs)   bands (ev):

   -61.8140 -28.8889 -28.3302 -28.0824  19.2074  21.5763  21.9220  24.0213
    26.3693  28.5551  36.1103  45.4360

          k =-0.1000-0.1000 0.5000 (   581 PWs)   bands (ev):

   -61.8607 -28.6203 -28.2914 -28.1449  19.3672  21.1966  22.4058  23.4333
    24.9710  26.6118  42.5281  43.5681

          k =-0.1000-0.2000 0.6000 (   583 PWs)   bands (ev):

   -61.8064 -28.7799 -28.4075 -28.1478  19.7787  20.8570  22.1061  23.9854
    25.7172  28.9149  38.2701  41.6937

          k =-0.1000 0.7000-0.3000 (   576 PWs)   bands (ev):

   -61.7856 -28.8419 -28.4520 -28.1457  19.6534  21.1168  21.8150  24.1443
    26.1116  30.9886  35.4452  41.1078

          k =-0.2000 0.8000-0.3000 (   579 PWs)   bands (ev):

   -61.7748 -28.7517 -28.5845 -28.1571  20.2997  20.3914  21.6932  24.7479
    25.5693  32.2360  36.3359  38.1034

          k =-0.3000 0.3000 0.3000 (   586 PWs)   bands (ev):

   -61.8883 -28.7214 -28.1141 -28.1141  19.7946  20.8854  20.8854  24.7990
    24.7990  27.4252  42.0213  42.0213

          k = 0.6000-0.6000 0.3000 (   580 PWs)   bands (ev):

   -61.8467 -28.7675 -28.2862 -28.1321  20.1591  20.6367  21.5533  24.8815
    25.0066  29.7428  38.0721  40.8239

          k = 0.5000-0.5000 0.3000 (   566 PWs)   bands (ev):

   -61.8308 -28.7557 -28.3800 -28.1388  20.0076  20.5606  22.1743  24.9384
    25.0665  31.5828  35.4361  40.4050

          k = 0.5000-0.6000 0.4000 (   571 PWs)   bands (ev):

   -61.8277 -28.6553 -28.4283 -28.2181  20.4003  20.8613  21.4056  25.0101
    25.0703  32.6820  36.3581  38.0629

          k = 0.0000 0.0000 0.5000 (   583 PWs)   bands (ev):

   -61.8646 -28.4801 -28.2753 -28.2753  19.2314  21.4448  23.0302  23.0302
    24.2123  26.4358  45.3637  45.8612

          k = 0.0000-0.1000 0.6000 (   585 PWs)   bands (ev):

   -61.8016 -28.6574 -28.3816 -28.3086  19.7423  20.5605  23.0836  23.6399
    25.2650  28.1305  40.9862  43.5494

          k = 0.0000-0.2000 0.7000 (   580 PWs)   bands (ev):

   -61.7624 -28.7961 -28.4464 -28.2973  19.5962  20.3606  22.9514  23.9172
    26.2314  30.9334  36.6129  42.1165

          k =-0.1000-0.1000 0.7000 (   583 PWs)   bands (ev):

   -61.7535 -28.7193 -28.5183 -28.3409  19.7863  19.8626  23.1981  24.4648
    25.7765  30.7881  39.0292  39.6911

          k =-0.1000 0.8000-0.2000 (   578 PWs)   bands (ev):

   -61.7351 -28.7427 -28.5856 -28.3370  19.5641  19.8094  23.1033  24.9050
    26.0246  33.6170  35.8003  38.7709

          k = 0.5000-0.5000 0.5000 (   544 PWs)   bands (ev):

   -61.8238 -28.4432 -28.4432 -28.4432  20.9175  20.9175  20.9175  25.0890
    25.0890  35.8883  35.8883  35.8883

          k = 0.0000 0.0000 0.7000 (   582 PWs)   bands (ev):

   -61.7454 -28.6257 -28.4927 -28.4927  19.5374  19.7181  24.3458  24.3458
    25.3402  30.2061  40.9249  40.9249

          k = 0.0000-0.1000 0.8000 (   577 PWs)   bands (ev):

   -61.7104 -28.7024 -28.5607 -28.5074  19.1844  19.2773  24.6187  24.9200
    26.0972  33.2109  37.4268  39.2774

          k =-0.1000 0.9000-0.1000 (   580 PWs)   bands (ev):

   -61.6939 -28.6620 -28.6620 -28.5197  18.9925  18.9925  24.7762  25.9168
    25.9168  36.1144  36.1144  37.1853

          k = 0.0000 0.0000 0.9000 (   598 PWs)   bands (ev):

   -61.6783 -28.6507 -28.6313 -28.6313  18.7150  18.7303  25.8723  25.8723
    26.0634  35.5330  37.4317  37.4317

     the Fermi energy is    24.7706 ev

!    total energy              =    -254.20566997 Ry
     estimated scf accuracy    <          5.8E-09 Ry
     smearing contrib. (-TS)   =      -0.00064666 Ry
     internal energy E=F+TS    =    -254.20502332 Ry

     The total energy is F=E-TS. E is the sum of the following terms:
     one-electron contribution =     -85.85399802 Ry
     hartree contribution      =      56.37445603 Ry
     xc contribution           =     -34.59410111 Ry
     ewald contribution        =    -190.13138022 Ry

     convergence has been achieved in   6 iterations

     Writing output data file ./tempdir/fe.save/

     init_run     :      0.52s CPU      0.54s WALL (       1 calls)
     electrons    :      2.13s CPU      2.26s WALL (       1 calls)

     Called by init_run:
     wfcinit      :      0.08s CPU      0.08s WALL (       1 calls)
     potinit      :      0.01s CPU      0.01s WALL (       1 calls)
     hinit0       :      0.39s CPU      0.39s WALL (       1 calls)

     Called by electrons:
     c_bands      :      1.32s CPU      1.35s WALL (       7 calls)
     sum_band     :      0.51s CPU      0.58s WALL (       7 calls)
     v_of_rho     :      0.03s CPU      0.03s WALL (       7 calls)
     newd         :      0.27s CPU      0.32s WALL (       7 calls)
     mix_rho      :      0.01s CPU      0.01s WALL (       7 calls)

     Called by c_bands:
     init_us_2    :      0.03s CPU      0.03s WALL (     330 calls)
     cegterg      :      1.22s CPU      1.24s WALL (     154 calls)

     Called by *egterg:
     cdiaghg      :      0.07s CPU      0.07s WALL (     611 calls)
     h_psi        :      1.11s CPU      1.12s WALL (     655 calls)
     s_psi        :      0.02s CPU      0.02s WALL (     655 calls)
     g_psi        :      0.01s CPU      0.01s WALL (     479 calls)

     Called by h_psi:
     h_psi:calbec :      0.02s CPU      0.02s WALL (     655 calls)
     vloc_psi     :      1.06s CPU      1.08s WALL (     655 calls)
     add_vuspsi   :      0.02s CPU      0.02s WALL (     655 calls)

     General routines
     calbec       :      0.03s CPU      0.03s WALL (     809 calls)
     fft          :      0.04s CPU      0.04s WALL (      41 calls)
     ffts         :      0.00s CPU      0.00s WALL (      14 calls)
     fftw         :      1.12s CPU      1.14s WALL (   12230 calls)
     interpolate  :      0.01s CPU      0.01s WALL (       7 calls)

     Parallel routines

     PWSCF        :      2.72s CPU      2.87s WALL


   This run was terminated on:  22:11:52  18Apr2021            

=------------------------------------------------------------------------------=
   JOB DONE.
=------------------------------------------------------------------------------=
