
     Program PWSCF v.6.4.1 starts on 30Aug2019 at 10:46:52 

     This program is part of the open-source Quantum ESPRESSO suite
     for quantum simulation of materials; please cite
         "P. Giannozzi et al., J. Phys.:Condens. Matter 21 395502 (2009);
         "P. Giannozzi et al., J. Phys.:Condens. Matter 29 465901 (2017);
          URL http://www.quantum-espresso.org", 
     in publications or presentations arising from this work. More details at
     http://www.quantum-espresso.org/quote

     Parallel version (MPI & OpenMP), running on      48 processor cores
     Number of MPI processes:                 8
     Threads/MPI process:                     6

     MPI processes distributed on     1 nodes
     R & G space division:  proc/nbgrp/npool/nimage =       8
     Waiting for input...
     Reading input from standard input

     Current dimensions of program PWSCF are:
     Max number of different atomic species (ntypx) = 10
     Max number of k-points (npk) =  40000
     Max angular momentum in pseudopotentials (lmaxx) =  3

     gamma-point specific algorithms are used

     Subspace diagonalization in iterative solution of the eigenvalue problem:
     one sub-group per band group will be used
     ELPA distributed-memory algorithm (size of sub-group:  2*  2 procs)

 
     Parallelization info
     --------------------
     sticks:   dense  smooth     PW     G-vecs:    dense   smooth      PW
     Min        2033    2033    505               162358   162358   20270
     Max        2036    2036    508               162364   162364   20280
     Sum       16281   16281   4053              1298895  1298895  162175
 


     bravais-lattice index     =            6
     lattice parameter (alat)  =      32.0000  a.u.
     unit-cell volume          =   27197.4400 (a.u.)^3
     number of atoms/cell      =           12
     number of atomic types    =            2
     number of electrons       =        30.00
     number of Kohn-Sham states=           20
     kinetic-energy cutoff     =      50.0000  Ry
     charge density cutoff     =     200.0000  Ry
     convergence threshold     =      1.0E-08
     mixing beta               =       0.6000
     number of iterations used =            8  plain     mixing
     Exchange-correlation= SLA LYP B88 BLYP
                           (   1   3   1   3   0   0   0)

     celldm(1)=  32.000000  celldm(2)=   0.000000  celldm(3)=   0.830000
     celldm(4)=   0.000000  celldm(5)=   0.000000  celldm(6)=   0.000000

     crystal axes: (cart. coord. in units of alat)
               a(1) = (   1.000000   0.000000   0.000000 )  
               a(2) = (   0.000000   1.000000   0.000000 )  
               a(3) = (   0.000000   0.000000   0.830000 )  

     reciprocal axes: (cart. coord. in units 2 pi/alat)
               b(1) = (  1.000000  0.000000  0.000000 )  
               b(2) = (  0.000000  1.000000  0.000000 )  
               b(3) = (  0.000000  0.000000  1.204819 )  


     PseudoPot. # 1 for H  read from file:
     ../H.blyp-vbc.UPF
     MD5 check sum: 1a3a213f4d5cd54e5c4bfa2599a500cd
     Pseudo is Norm-conserving, Zval =  1.0
     Generated by new atomic code, or converted to UPF format
     Using radial grid of  243 points,  0 beta functions with: 

     PseudoPot. # 2 for C  read from file:
     ../C.blyp-mt.UPF
     MD5 check sum: db83422a820e8534d47228c797c57ed3
     Pseudo is Norm-conserving, Zval =  4.0
     Generated by new atomic code, or converted to UPF format
     Using radial grid of  279 points,  1 beta functions with: 
                l(1) =   0

     atomic species   valence    mass     pseudopotential
        H              1.00     1.00000     H ( 1.00)
        C              4.00    12.01000     C ( 1.00)

     No symmetry found



   Cartesian axes

     site n.     atom                  positions (alat units)
         1           C   tau(   1) = (   0.3326627   0.3732718   0.2952697  )
         2           C   tau(   2) = (   0.4043454   0.4973890   0.2952697  )
         3           C   tau(   3) = (   0.4760191   0.4560089   0.2952697  )
         4           C   tau(   4) = (   0.4760166   0.3732585   0.2952697  )
         5           C   tau(   5) = (   0.4043364   0.3318871   0.2952697  )
         6           C   tau(   6) = (   0.3326674   0.4560225   0.2952697  )
         7           H   tau(   7) = (   0.4043574   0.5617361   0.2952697  )
         8           H   tau(   8) = (   0.5317432   0.4881776   0.2952697  )
         9           H   tau(   9) = (   0.5317393   0.3410894   0.2952697  )
        10           H   tau(  10) = (   0.4043332   0.2675452   0.2952697  )
        11           H   tau(  11) = (   0.2769368   0.3411096   0.2952697  )
        12           H   tau(  12) = (   0.2769507   0.4882003   0.2952697  )

     number of k points=     1
                       cart. coord. in units 2pi/alat
        k(    1) = (   0.0000000   0.0000000   0.0000000), wk =   2.0000000

     Dense  grid:   649448 G-vectors     FFT dimensions: ( 150, 150, 120)

     Estimated max dynamical RAM per process >      88.36 MB

     Estimated total dynamical RAM >     706.85 MB

     Initial potential from superposition of free atoms

     starting charge   29.99964, renormalised to   30.00000

     negative rho (up, down):  3.847E-02 0.000E+00
     Starting wfcs are   30 randomized atomic wfcs

     total cpu time spent up to now is        0.8 secs

     Self-consistent Calculation

     iteration #  1     ecut=    50.00 Ry     beta= 0.60
     Davidson diagonalization with overlap
     ethr =  1.00E-02,  avg # of iterations =  5.0

     negative rho (up, down):  1.516E-02 0.000E+00

     total cpu time spent up to now is        1.2 secs

     total energy              =     -74.64111186 Ry
     Harris-Foulkes estimate   =     -75.55684764 Ry
     estimated scf accuracy    <       1.54098044 Ry

     iteration #  2     ecut=    50.00 Ry     beta= 0.60
     Davidson diagonalization with overlap
     ethr =  5.14E-03,  avg # of iterations =  2.0

     negative rho (up, down):  7.728E-03 0.000E+00

     total cpu time spent up to now is        1.4 secs

     total energy              =     -74.95835245 Ry
     Harris-Foulkes estimate   =     -75.06840606 Ry
     estimated scf accuracy    <       0.22846319 Ry

     iteration #  3     ecut=    50.00 Ry     beta= 0.60
     Davidson diagonalization with overlap
     ethr =  7.62E-04,  avg # of iterations =  8.0

     negative rho (up, down):  1.526E-03 0.000E+00

     total cpu time spent up to now is        1.7 secs

     total energy              =     -75.00807865 Ry
     Harris-Foulkes estimate   =     -75.01224047 Ry
     estimated scf accuracy    <       0.01709234 Ry

     iteration #  4     ecut=    50.00 Ry     beta= 0.60
     Davidson diagonalization with overlap
     ethr =  5.70E-05,  avg # of iterations =  9.0

     negative rho (up, down):  3.655E-04 0.000E+00

     total cpu time spent up to now is        2.1 secs

     total energy              =     -75.01108189 Ry
     Harris-Foulkes estimate   =     -75.01109571 Ry
     estimated scf accuracy    <       0.00038932 Ry

     iteration #  5     ecut=    50.00 Ry     beta= 0.60
     Davidson diagonalization with overlap
     ethr =  1.30E-06,  avg # of iterations =  5.0

     total cpu time spent up to now is        2.3 secs

     total energy              =     -75.01112024 Ry
     Harris-Foulkes estimate   =     -75.01112609 Ry
     estimated scf accuracy    <       0.00002556 Ry

     iteration #  6     ecut=    50.00 Ry     beta= 0.60
     Davidson diagonalization with overlap
     ethr =  8.52E-08,  avg # of iterations =  2.0

     negative rho (up, down):  1.500E-08 0.000E+00

     total cpu time spent up to now is        2.6 secs

     total energy              =     -75.01112510 Ry
     Harris-Foulkes estimate   =     -75.01112666 Ry
     estimated scf accuracy    <       0.00000421 Ry

     iteration #  7     ecut=    50.00 Ry     beta= 0.60
     Davidson diagonalization with overlap
     ethr =  1.40E-08,  avg # of iterations =  2.0

     total cpu time spent up to now is        2.8 secs

     total energy              =     -75.01112527 Ry
     Harris-Foulkes estimate   =     -75.01112575 Ry
     estimated scf accuracy    <       0.00000075 Ry

     iteration #  8     ecut=    50.00 Ry     beta= 0.60
     Davidson diagonalization with overlap
     ethr =  2.51E-09,  avg # of iterations =  2.0

     total cpu time spent up to now is        3.0 secs

     total energy              =     -75.01112518 Ry
     Harris-Foulkes estimate   =     -75.01112541 Ry
     estimated scf accuracy    <       0.00000002 Ry

     iteration #  9     ecut=    50.00 Ry     beta= 0.60
     Davidson diagonalization with overlap
     ethr =  5.03E-11,  avg # of iterations =  3.0

     total cpu time spent up to now is        3.3 secs

     End of self-consistent calculation

          k = 0.0000 0.0000 0.0000 ( 81088 PWs)   bands (ev):

   -20.7330 -18.0168 -18.0149 -14.4574 -14.4563 -12.5195 -10.9200 -10.5656
    -9.9405  -9.9384  -8.5857  -8.0004  -8.0000  -5.8945  -5.8931  -0.8620
    -0.8615  -0.2970   0.2690   0.3613

     highest occupied, lowest unoccupied level (ev):    -5.8931   -0.8620

!    total energy              =     -75.01112504 Ry
     Harris-Foulkes estimate   =     -75.01112519 Ry
     estimated scf accuracy    <          5.8E-09 Ry

     The total energy is the sum of the following terms:

     one-electron contribution =    -351.58896076 Ry
     hartree contribution      =     178.91921447 Ry
     xc contribution           =     -24.77653895 Ry
     ewald contribution        =     122.43516019 Ry

     convergence has been achieved in   9 iterations

     Writing output data file ./out/Benzene.save/
 
     init_run     :      1.79s CPU      0.66s WALL (       1 calls)
     electrons    :     15.14s CPU      2.71s WALL (       1 calls)

     Called by init_run:
     wfcinit      :      0.69s CPU      0.15s WALL (       1 calls)
     potinit      :      0.73s CPU      0.16s WALL (       1 calls)
     hinit0       :      0.19s CPU      0.15s WALL (       1 calls)

     Called by electrons:
     c_bands      :      8.23s CPU      1.45s WALL (       9 calls)
     sum_band     :      1.62s CPU      0.28s WALL (       9 calls)
     v_of_rho     :      3.63s CPU      0.66s WALL (      10 calls)
     mix_rho      :      0.99s CPU      0.18s WALL (       9 calls)

     Called by c_bands:
     init_us_2    :      0.03s CPU      0.00s WALL (      19 calls)
     regterg      :      8.18s CPU      1.44s WALL (       9 calls)

     Called by sum_band:

     Called by *egterg:
     h_psi        :      6.70s CPU      1.18s WALL (      48 calls)
     g_psi        :      0.02s CPU      0.00s WALL (      38 calls)
     rdiaghg      :      0.83s CPU      0.15s WALL (      47 calls)

     Called by h_psi:
     h_psi:calbec :      0.10s CPU      0.02s WALL (      48 calls)
     vloc_psi     :      6.49s CPU      1.13s WALL (      48 calls)
     add_vuspsi   :      0.08s CPU      0.02s WALL (      48 calls)

     General routines
     calbec       :      0.10s CPU      0.02s WALL (      48 calls)
     fft          :      1.58s CPU      0.32s WALL (      79 calls)
     ffts         :      0.14s CPU      0.03s WALL (       9 calls)
     fftw         :      4.94s CPU      0.87s WALL (     650 calls)
 
     Parallel routines
     fft_scatt_xy :      0.91s CPU      0.16s WALL (     738 calls)
     fft_scatt_yz :      2.84s CPU      0.52s WALL (     738 calls)
 
     PWSCF        :     17.63s CPU      3.73s WALL

 
   This run was terminated on:  10:46:56  30Aug2019            

=------------------------------------------------------------------------------=
   JOB DONE.
=------------------------------------------------------------------------------=
