
     Program Q2R v.6.4.1 starts on 23Aug2019 at 15:23:36 

     This program is part of the open-source Quantum ESPRESSO suite
     for quantum simulation of materials; please cite
         "P. Giannozzi et al., J. Phys.:Condens. Matter 21 395502 (2009);
         "P. Giannozzi et al., J. Phys.:Condens. Matter 29 465901 (2017);
          URL http://www.quantum-espresso.org", 
     in publications or presentations arising from this work. More details at
     http://www.quantum-espresso.org/quote

     Parallel version (MPI), running on     8 processors

     MPI processes distributed on     1 nodes
     R & G space division:  proc/nbgrp/npool/nimage =       8

     reading grid info from file bn.disp.dyn0    
  reading force constants from file bn.disp.dyn1
 macroscopic fields = T
   2.16605   0.00000   0.00000
   0.00000   2.16605   0.00000
   0.00000   0.00000   1.19206
  na=            1
   2.70085   0.00000   0.00000
   0.00000   2.70085   0.00000
   0.00000   0.00000   0.24307
  na=            2
  -2.70966   0.00000   0.00000
   0.00000  -2.70966   0.00000
   0.00000   0.00000  -0.24941
  nqs=            1
 q=   0.00000000  0.00000000  0.00000000
  reading force constants from file bn.disp.dyn2
  nqs=            6
 q=   0.00000000  0.19245009  0.00000000
 q=   0.00000000 -0.19245009  0.00000000
 q=   0.16666667 -0.09622504  0.00000000
 q=  -0.16666667  0.09622504  0.00000000
 q=  -0.16666667 -0.09622504  0.00000000
 q=   0.16666667  0.09622504  0.00000000
  reading force constants from file bn.disp.dyn3
  nqs=            6
 q=   0.00000000  0.38490018  0.00000000
 q=   0.00000000 -0.38490018  0.00000000
 q=   0.33333333 -0.19245009  0.00000000
 q=  -0.33333333  0.19245009  0.00000000
 q=  -0.33333333 -0.19245009  0.00000000
 q=   0.33333333  0.19245009  0.00000000
  reading force constants from file bn.disp.dyn4
  nqs=            3
 q=   0.00000000 -0.57735027  0.00000000
 q=  -0.50000000  0.28867514  0.00000000
 q=   0.50000000  0.28867514  0.00000000
  reading force constants from file bn.disp.dyn5
  nqs=            6
 q=   0.16666667  0.28867514  0.00000000
 q=  -0.16666667  0.28867514  0.00000000
 q=   0.16666667 -0.28867514  0.00000000
 q=  -0.33333333  0.00000000  0.00000000
 q=  -0.16666667 -0.28867514  0.00000000
 q=   0.33333333  0.00000000  0.00000000
  reading force constants from file bn.disp.dyn6
  nqs=           12
 q=   0.16666667  0.48112522  0.00000000
 q=  -0.16666667 -0.48112522  0.00000000
 q=  -0.16666667  0.48112522  0.00000000
 q=   0.16666667 -0.48112522  0.00000000
 q=   0.33333333 -0.38490018  0.00000000
 q=  -0.33333333  0.38490018  0.00000000
 q=  -0.50000000 -0.09622504  0.00000000
 q=   0.50000000  0.09622504  0.00000000
 q=  -0.33333333 -0.38490018  0.00000000
 q=   0.33333333  0.38490018  0.00000000
 q=   0.50000000 -0.09622504  0.00000000
 q=  -0.50000000  0.09622504  0.00000000
  reading force constants from file bn.disp.dyn7
  nqs=            2
 q=   0.33333333  0.57735027  0.00000000
 q=  -0.33333333  0.57735027  0.00000000

      q-space grid ok, #points =   36

      fft-check warning: sum of imaginary terms = 2.672800E-06
 
     Q2R          :      0.03s CPU      0.07s WALL

 
   This run was terminated on:  15:23:36  23Aug2019            

=------------------------------------------------------------------------------=
   JOB DONE.
=------------------------------------------------------------------------------=
