
     Program PWSCF v.6.4.1 starts on 23Aug2019 at 15: 5:42 

     This program is part of the open-source Quantum ESPRESSO suite
     for quantum simulation of materials; please cite
         "P. Giannozzi et al., J. Phys.:Condens. Matter 21 395502 (2009);
         "P. Giannozzi et al., J. Phys.:Condens. Matter 29 465901 (2017);
          URL http://www.quantum-espresso.org", 
     in publications or presentations arising from this work. More details at
     http://www.quantum-espresso.org/quote

     Parallel version (MPI), running on     8 processors

     MPI processes distributed on     1 nodes
     R & G space division:  proc/nbgrp/npool/nimage =       8
     Reading input from bn_scf.in

     Current dimensions of program PWSCF are:
     Max number of different atomic species (ntypx) = 10
     Max number of k-points (npk) =  40000
     Max angular momentum in pseudopotentials (lmaxx) =  3
               file N.pbe-n-kjpaw_psl.0.1.UPF: wavefunction(s)  2P renormalized

     Subspace diagonalization in iterative solution of the eigenvalue problem:
     a serial algorithm will be used

 
     Parallelization info
     --------------------
     sticks:   dense  smooth     PW     G-vecs:    dense   smooth      PW
     Min          84      42     13                 7714     2732     467
     Max          85      44     14                 7737     2740     478
     Sum         673     349    109                61757    21901    3797
 


     bravais-lattice index     =            4
     lattice parameter (alat)  =       4.7419  a.u.
     unit-cell volume          =     397.0601 (a.u.)^3
     number of atoms/cell      =            2
     number of atomic types    =            2
     number of electrons       =         8.00
     number of Kohn-Sham states=            4
     kinetic-energy cutoff     =      55.0000  Ry
     charge density cutoff     =     440.0000  Ry
     convergence threshold     =      1.0E-10
     mixing beta               =       0.7000
     number of iterations used =            8  plain     mixing
     Exchange-correlation      = SLA PW PBX PBC ( 1  4  3  4 0 0)

     celldm(1)=   4.741900  celldm(2)=   0.000000  celldm(3)=   4.300000
     celldm(4)=   0.000000  celldm(5)=   0.000000  celldm(6)=   0.000000

     crystal axes: (cart. coord. in units of alat)
               a(1) = (   1.000000   0.000000   0.000000 )  
               a(2) = (  -0.500000   0.866025   0.000000 )  
               a(3) = (   0.000000   0.000000   4.300000 )  

     reciprocal axes: (cart. coord. in units 2 pi/alat)
               b(1) = (  1.000000  0.577350  0.000000 )  
               b(2) = (  0.000000  1.154701  0.000000 )  
               b(3) = (  0.000000  0.000000  0.232558 )  


     PseudoPot. # 1 for B  read from file:
     ./pseudo_dir/B.pbe-n-kjpaw_psl.0.1.UPF
     MD5 check sum: ce1cfd82b228d771fe3728b6beef9a4c
     Pseudo is Ultrasoft + core correction, Zval =  3.0
     Generated using "atomic" code by A. Dal Corso v.6.3MaX
     Using radial grid of 1059 points,  4 beta functions with: 
                l(1) =   0
                l(2) =   0
                l(3) =   1
                l(4) =   1
     Q(r) pseudized with 0 coefficients 


     PseudoPot. # 2 for N  read from file:
     ./pseudo_dir/N.pbe-n-kjpaw_psl.0.1.UPF
     MD5 check sum: 5f964142c164ed943b244cf6ba502af7
     Pseudo is Projector augmented-wave + core cor, Zval =  5.0
     Generated using "atomic" code by A. Dal Corso v.6.3
     Shape of augmentation charge: PSQ
     Using radial grid of 1085 points,  4 beta functions with: 
                l(1) =   0
                l(2) =   0
                l(3) =   1
                l(4) =   1
     Q(r) pseudized with 0 coefficients 


     atomic species   valence    mass     pseudopotential
        B              3.00    10.81000     B ( 1.00)
        N              5.00    14.00674     N ( 1.00)

     12 Sym. Ops. (no inversion) found ( 8 have fractional translation)



   Cartesian axes

     site n.     atom                  positions (alat units)
         1           B   tau(   1) = (   0.0000000   0.2886751   0.0000000  )
         2           N   tau(   2) = (   0.0000000  -0.2886751   0.0000000  )

     number of k points=    10
                       cart. coord. in units 2pi/alat
        k(    1) = (   0.0000000   0.0000000   0.0000000), wk =   0.0312500
        k(    2) = (   0.0000000   0.1443376   0.0000000), wk =   0.1875000
        k(    3) = (   0.0000000   0.2886751   0.0000000), wk =   0.1875000
        k(    4) = (   0.0000000   0.4330127   0.0000000), wk =   0.1875000
        k(    5) = (   0.0000000  -0.5773503   0.0000000), wk =   0.0937500
        k(    6) = (   0.1250000   0.2165064   0.0000000), wk =   0.1875000
        k(    7) = (   0.1250000   0.3608439   0.0000000), wk =   0.3750000
        k(    8) = (   0.1250000   0.5051815   0.0000000), wk =   0.3750000
        k(    9) = (   0.2500000   0.4330127   0.0000000), wk =   0.1875000
        k(   10) = (   0.2500000   0.5773503   0.0000000), wk =   0.1875000

     Dense  grid:    61757 G-vectors     FFT dimensions: (  32,  32, 144)

     Smooth grid:    21901 G-vectors     FFT dimensions: (  24,  24, 100)

     Estimated max dynamical RAM per process >      10.89 MB

     Estimated total dynamical RAM >      87.14 MB
 ----2D----2D----2D----2D----2D----2D----2D----2D----2D----2D----2D----2D
  The code is running with the 2D cutoff
  Please refer to:
  Sohier, T., Calandra, M., & Mauri, F. (2017), 
  Density functional perturbation theory for gated two-dimensional heterostructu
 res:
  Theoretical developments and application to flexural phonons in graphene.
  Physical Review B, 96(7), 75448. https://doi.org/10.1103/PhysRevB.96.075448
 ----2D----2D----2D----2D----2D----2D----2D----2D----2D----2D----2D----2D

     Check: negative core charge=   -0.000002

     Initial potential from superposition of free atoms

     starting charge    7.99971, renormalised to    8.00000

     negative rho (up, down):  1.718E-06 0.000E+00
     Starting wfcs are    8 randomized atomic wfcs
     Checking if some PAW data can be deallocated... 

     total cpu time spent up to now is        2.4 secs

     Self-consistent Calculation

     iteration #  1     ecut=    55.00 Ry     beta= 0.70
     Davidson diagonalization with overlap
     ethr =  1.00E-02,  avg # of iterations =  3.0

     negative rho (up, down):  4.765E-08 0.000E+00

     total cpu time spent up to now is        2.6 secs

     total energy              =     -34.53429120 Ry
     Harris-Foulkes estimate   =     -34.82417891 Ry
     estimated scf accuracy    <       0.42305022 Ry

     iteration #  2     ecut=    55.00 Ry     beta= 0.70
     Davidson diagonalization with overlap
     ethr =  5.29E-03,  avg # of iterations =  3.3

     negative rho (up, down):  6.164E-08 0.000E+00

     total cpu time spent up to now is        2.9 secs

     total energy              =     -34.64222561 Ry
     Harris-Foulkes estimate   =     -34.76468002 Ry
     estimated scf accuracy    <       0.23651980 Ry

     iteration #  3     ecut=    55.00 Ry     beta= 0.70
     Davidson diagonalization with overlap
     ethr =  2.96E-03,  avg # of iterations =  3.0

     negative rho (up, down):  1.414E-05 0.000E+00

     total cpu time spent up to now is        3.1 secs

     total energy              =     -34.67391534 Ry
     Harris-Foulkes estimate   =     -34.68020016 Ry
     estimated scf accuracy    <       0.00961986 Ry

     iteration #  4     ecut=    55.00 Ry     beta= 0.70
     Davidson diagonalization with overlap
     ethr =  1.20E-04,  avg # of iterations =  4.4

     negative rho (up, down):  7.682E-06 0.000E+00

     total cpu time spent up to now is        3.4 secs

     total energy              =     -34.69151500 Ry
     Harris-Foulkes estimate   =     -34.70103030 Ry
     estimated scf accuracy    <       0.03000333 Ry

     iteration #  5     ecut=    55.00 Ry     beta= 0.70
     Davidson diagonalization with overlap
     ethr =  1.20E-04,  avg # of iterations =  1.7

     negative rho (up, down):  9.363E-06 0.000E+00

     total cpu time spent up to now is        3.6 secs

     total energy              =     -34.69031670 Ry
     Harris-Foulkes estimate   =     -34.69248668 Ry
     estimated scf accuracy    <       0.01064843 Ry

     iteration #  6     ecut=    55.00 Ry     beta= 0.70
     Davidson diagonalization with overlap
     ethr =  1.20E-04,  avg # of iterations =  2.3

     negative rho (up, down):  1.457E-05 0.000E+00

     total cpu time spent up to now is        3.8 secs

     total energy              =     -34.68916093 Ry
     Harris-Foulkes estimate   =     -34.69131795 Ry
     estimated scf accuracy    <       0.00384872 Ry

     iteration #  7     ecut=    55.00 Ry     beta= 0.70
     Davidson diagonalization with overlap
     ethr =  4.81E-05,  avg # of iterations =  3.4

     negative rho (up, down):  1.345E-05 0.000E+00

     total cpu time spent up to now is        4.1 secs

     total energy              =     -34.69115738 Ry
     Harris-Foulkes estimate   =     -34.69171037 Ry
     estimated scf accuracy    <       0.00137869 Ry

     iteration #  8     ecut=    55.00 Ry     beta= 0.70
     Davidson diagonalization with overlap
     ethr =  1.72E-05,  avg # of iterations =  1.6

     negative rho (up, down):  1.273E-05 0.000E+00

     total cpu time spent up to now is        4.3 secs

     total energy              =     -34.69111460 Ry
     Harris-Foulkes estimate   =     -34.69126769 Ry
     estimated scf accuracy    <       0.00023817 Ry

     iteration #  9     ecut=    55.00 Ry     beta= 0.70
     Davidson diagonalization with overlap
     ethr =  2.98E-06,  avg # of iterations =  3.6

     negative rho (up, down):  1.391E-05 0.000E+00

     total cpu time spent up to now is        4.6 secs

     total energy              =     -34.69134382 Ry
     Harris-Foulkes estimate   =     -34.69140458 Ry
     estimated scf accuracy    <       0.00030795 Ry

     iteration # 10     ecut=    55.00 Ry     beta= 0.70
     Davidson diagonalization with overlap
     ethr =  2.98E-06,  avg # of iterations =  1.0

     negative rho (up, down):  1.394E-05 0.000E+00

     total cpu time spent up to now is        4.8 secs

     total energy              =     -34.69128000 Ry
     Harris-Foulkes estimate   =     -34.69134841 Ry
     estimated scf accuracy    <       0.00017764 Ry

     iteration # 11     ecut=    55.00 Ry     beta= 0.70
     Davidson diagonalization with overlap
     ethr =  2.22E-06,  avg # of iterations =  2.1

     negative rho (up, down):  1.394E-05 0.000E+00

     total cpu time spent up to now is        5.0 secs

     total energy              =     -34.69130624 Ry
     Harris-Foulkes estimate   =     -34.69130848 Ry
     estimated scf accuracy    <       0.00000668 Ry

     iteration # 12     ecut=    55.00 Ry     beta= 0.70
     Davidson diagonalization with overlap
     ethr =  8.36E-08,  avg # of iterations =  3.7

     negative rho (up, down):  1.393E-05 0.000E+00

     total cpu time spent up to now is        5.3 secs

     total energy              =     -34.69131099 Ry
     Harris-Foulkes estimate   =     -34.69131085 Ry
     estimated scf accuracy    <       0.00000004 Ry

     iteration # 13     ecut=    55.00 Ry     beta= 0.70
     Davidson diagonalization with overlap
     ethr =  5.36E-10,  avg # of iterations =  5.2

     negative rho (up, down):  1.394E-05 0.000E+00

     total cpu time spent up to now is        5.6 secs

     total energy              =     -34.69131152 Ry
     Harris-Foulkes estimate   =     -34.69131115 Ry
     estimated scf accuracy    <       0.00000071 Ry

     iteration # 14     ecut=    55.00 Ry     beta= 0.70
     Davidson diagonalization with overlap
     ethr =  5.36E-10,  avg # of iterations =  4.9

     negative rho (up, down):  1.393E-05 0.000E+00

     total cpu time spent up to now is        5.9 secs

     total energy              =     -34.69131059 Ry
     Harris-Foulkes estimate   =     -34.69131161 Ry
     estimated scf accuracy    <       0.00000219 Ry

     iteration # 15     ecut=    55.00 Ry     beta= 0.70
     Davidson diagonalization with overlap
     ethr =  5.36E-10,  avg # of iterations =  6.8

     negative rho (up, down):  1.391E-05 0.000E+00

     total cpu time spent up to now is        6.2 secs

     total energy              =     -34.69131094 Ry
     Harris-Foulkes estimate   =     -34.69131094 Ry
     estimated scf accuracy    <       0.00000001 Ry

     iteration # 16     ecut=    55.00 Ry     beta= 0.70
     Davidson diagonalization with overlap
     ethr =  1.53E-10,  avg # of iterations =  1.0

     negative rho (up, down):  1.391E-05 0.000E+00

     total cpu time spent up to now is        6.4 secs

     total energy              =     -34.69131094 Ry
     Harris-Foulkes estimate   =     -34.69131094 Ry
     estimated scf accuracy    <       0.00000001 Ry

     iteration # 17     ecut=    55.00 Ry     beta= 0.70
     Davidson diagonalization with overlap
     ethr =  1.53E-10,  avg # of iterations =  1.0

     negative rho (up, down):  1.391E-05 0.000E+00

     total cpu time spent up to now is        6.6 secs

     total energy              =     -34.69131094 Ry
     Harris-Foulkes estimate   =     -34.69131094 Ry
     estimated scf accuracy    <       0.00000001 Ry

     iteration # 18     ecut=    55.00 Ry     beta= 0.70
     Davidson diagonalization with overlap
     ethr =  1.38E-10,  avg # of iterations =  1.8

     negative rho (up, down):  1.391E-05 0.000E+00

     total cpu time spent up to now is        6.8 secs

     total energy              =     -34.69131094 Ry
     Harris-Foulkes estimate   =     -34.69131094 Ry
     estimated scf accuracy    <          4.0E-09 Ry

     iteration # 19     ecut=    55.00 Ry     beta= 0.70
     Davidson diagonalization with overlap
     ethr =  5.02E-11,  avg # of iterations =  3.0

     negative rho (up, down):  1.391E-05 0.000E+00

     total cpu time spent up to now is        7.0 secs

     total energy              =     -34.69131094 Ry
     Harris-Foulkes estimate   =     -34.69131094 Ry
     estimated scf accuracy    <          5.1E-09 Ry

     iteration # 20     ecut=    55.00 Ry     beta= 0.70
     Davidson diagonalization with overlap
     ethr =  5.02E-11,  avg # of iterations =  1.0

     negative rho (up, down):  1.390E-05 0.000E+00

     total cpu time spent up to now is        7.3 secs

     total energy              =     -34.69131094 Ry
     Harris-Foulkes estimate   =     -34.69131094 Ry
     estimated scf accuracy    <          4.8E-09 Ry

     iteration # 21     ecut=    55.00 Ry     beta= 0.70
     Davidson diagonalization with overlap
     ethr =  5.02E-11,  avg # of iterations =  4.4

     negative rho (up, down):  1.391E-05 0.000E+00

     total cpu time spent up to now is        7.5 secs

     total energy              =     -34.69131094 Ry
     Harris-Foulkes estimate   =     -34.69131095 Ry
     estimated scf accuracy    <       0.00000003 Ry

     iteration # 22     ecut=    55.00 Ry     beta= 0.70
     Davidson diagonalization with overlap
     ethr =  5.02E-11,  avg # of iterations =  3.0

     negative rho (up, down):  1.391E-05 0.000E+00

     total cpu time spent up to now is        7.8 secs

     total energy              =     -34.69131094 Ry
     Harris-Foulkes estimate   =     -34.69131094 Ry
     estimated scf accuracy    <          3.3E-09 Ry

     iteration # 23     ecut=    55.00 Ry     beta= 0.70
     Davidson diagonalization with overlap
     ethr =  4.18E-11,  avg # of iterations =  1.0

     negative rho (up, down):  1.391E-05 0.000E+00

     total cpu time spent up to now is        8.0 secs

     total energy              =     -34.69131094 Ry
     Harris-Foulkes estimate   =     -34.69131094 Ry
     estimated scf accuracy    <          1.7E-09 Ry

     iteration # 24     ecut=    55.00 Ry     beta= 0.70
     Davidson diagonalization with overlap
     ethr =  2.12E-11,  avg # of iterations =  2.9

     negative rho (up, down):  1.391E-05 0.000E+00

     total cpu time spent up to now is        8.2 secs

     total energy              =     -34.69131094 Ry
     Harris-Foulkes estimate   =     -34.69131094 Ry
     estimated scf accuracy    <          1.6E-10 Ry

     iteration # 25     ecut=    55.00 Ry     beta= 0.70
     Davidson diagonalization with overlap
     ethr =  1.97E-12,  avg # of iterations =  3.3

     negative rho (up, down):  1.391E-05 0.000E+00

     total cpu time spent up to now is        8.5 secs

     End of self-consistent calculation

          k = 0.0000 0.0000 0.0000 (  2761 PWs)   bands (ev):

   -23.4518 -11.0294  -7.1764  -7.1764

          k = 0.0000 0.1443 0.0000 (  2765 PWs)   bands (ev):

   -23.1541 -10.6295  -8.3599  -7.7166

          k = 0.0000 0.2887 0.0000 (  2740 PWs)   bands (ev):

   -22.3040 -10.9147  -9.4771  -8.7827

          k = 0.0000 0.4330 0.0000 (  2722 PWs)   bands (ev):

   -21.1124 -13.4617  -9.6406  -7.8108

          k = 0.0000-0.5774 0.0000 (  2728 PWs)   bands (ev):

   -20.3846 -14.6850  -9.9550  -6.7156

          k = 0.1250 0.2165 0.0000 (  2751 PWs)   bands (ev):

   -22.5784  -9.9799  -9.8513  -8.7710

          k = 0.1250 0.3608 0.0000 (  2742 PWs)   bands (ev):

   -21.5336 -12.2725 -10.0123  -8.4130

          k = 0.1250 0.5052 0.0000 (  2724 PWs)   bands (ev):

   -20.4461 -14.1888 -10.6895  -6.8259

          k = 0.2500 0.4330 0.0000 (  2726 PWs)   bands (ev):

   -20.5044 -13.4043 -11.6890  -6.9277

          k = 0.2500 0.5774 0.0000 (  2706 PWs)   bands (ev):

   -19.9254 -13.9949 -12.3719  -6.0096

     highest occupied level (ev):    -6.0096

!    total energy              =     -34.69131094 Ry
     Harris-Foulkes estimate   =     -34.69131094 Ry
     estimated scf accuracy    <          3.7E-11 Ry

     The total energy is the sum of the following terms:

     one-electron contribution =    -168.97930104 Ry
     hartree contribution      =      85.67141487 Ry
     xc contribution           =      -8.40805705 Ry
     ewald contribution        =      65.29758615 Ry
     one-center paw contrib.   =      -8.27295386 Ry

     convergence has been achieved in  25 iterations

     Writing output data file bn.save/
 
     init_run     :      0.72s CPU      0.80s WALL (       1 calls)
     electrons    :      5.45s CPU      6.13s WALL (       1 calls)

     Called by init_run:
     wfcinit      :      0.05s CPU      0.06s WALL (       1 calls)
     potinit      :      0.16s CPU      0.18s WALL (       1 calls)
     hinit0       :      0.36s CPU      0.40s WALL (       1 calls)

     Called by electrons:
     c_bands      :      2.38s CPU      2.60s WALL (      25 calls)
     sum_band     :      1.20s CPU      1.25s WALL (      25 calls)
     v_of_rho     :      0.68s CPU      0.72s WALL (      26 calls)
     newd         :      0.60s CPU      0.62s WALL (      26 calls)
     PAW_pot      :      0.39s CPU      0.75s WALL (      26 calls)
     mix_rho      :      0.16s CPU      0.17s WALL (      25 calls)

     Called by c_bands:
     init_us_2    :      0.11s CPU      0.12s WALL (     510 calls)
     cegterg      :      2.19s CPU      2.39s WALL (     250 calls)

     Called by sum_band:
     sum_band:bec :      0.00s CPU      0.00s WALL (     250 calls)
     addusdens    :      0.70s CPU      0.71s WALL (      25 calls)

     Called by *egterg:
     h_psi        :      1.79s CPU      1.95s WALL (     984 calls)
     s_psi        :      0.06s CPU      0.07s WALL (     984 calls)
     g_psi        :      0.02s CPU      0.02s WALL (     724 calls)
     cdiaghg      :      0.10s CPU      0.11s WALL (     974 calls)

     Called by h_psi:
     h_psi:pot    :      1.78s CPU      1.94s WALL (     984 calls)
     h_psi:calbec :      0.10s CPU      0.11s WALL (     984 calls)
     vloc_psi     :      1.60s CPU      1.74s WALL (     984 calls)
     add_vuspsi   :      0.07s CPU      0.07s WALL (     984 calls)

     General routines
     calbec       :      0.12s CPU      0.14s WALL (    1234 calls)
     fft          :      0.39s CPU      0.44s WALL (     336 calls)
     ffts         :      0.02s CPU      0.02s WALL (      51 calls)
     fftw         :      1.60s CPU      1.74s WALL (    7616 calls)
     interpolate  :      0.05s CPU      0.05s WALL (      26 calls)
 
     Parallel routines
     fft_scatt_xy :      0.27s CPU      0.28s WALL (    8003 calls)
     fft_scatt_yz :      0.58s CPU      0.66s WALL (    8003 calls)
 
     PWSCF        :      7.62s CPU      8.55s WALL

 
   This run was terminated on:  15: 5:50  23Aug2019            

=------------------------------------------------------------------------------=
   JOB DONE.
=------------------------------------------------------------------------------=
