
     Program PWSCF v.5.2.0 starts on 30Sep2015 at 13: 7: 2 

     This program is part of the open-source Quantum ESPRESSO suite
     for quantum simulation of materials; please cite
         "P. Giannozzi et al., J. Phys.:Condens. Matter 21 395502 (2009);
          URL http://www.quantum-espresso.org", 
     in publications or presentations arising from this work. More details at
     http://www.quantum-espresso.org/quote

     Parallel version (MPI), running on     2 processors
     R & G space division:  proc/nbgrp/npool/nimage =       2
     Waiting for input...
     Reading input from standard input
     Message from routine read_cards :
     DEPRECATED: no units specified in ATOMIC_POSITIONS card
     Message from routine read_cards :
     ATOMIC_POSITIONS: units set to alat

     Current dimensions of program PWSCF are:
     Max number of different atomic species (ntypx) = 10
     Max number of k-points (npk) =  40000
     Max angular momentum in pseudopotentials (lmaxx) =  3

     Subspace diagonalization in iterative solution of the eigenvalue problem:
     a serial algorithm will be used

 
     Parallelization info
     --------------------
     sticks:   dense  smooth     PW     G-vecs:    dense   smooth      PW
     Min         117     117     42                 1138     1138     267
     Max         118     118     43                 1139     1139     270
     Sum         235     235     85                 2277     2277     537
 


     bravais-lattice index     =            2
     lattice parameter (alat)  =      10.2600  a.u.
     unit-cell volume          =     270.0114 (a.u.)^3
     number of atoms/cell      =            2
     number of atomic types    =            1
     number of electrons       =         8.00
     number of Kohn-Sham states=            4
     kinetic-energy cutoff     =      16.0000  Ry
     charge density cutoff     =      64.0000  Ry
     convergence threshold     =      1.0E-08
     mixing beta               =       0.7000
     number of iterations used =            8  plain     mixing
     Exchange-correlation      =  SLA  PZ   NOGX NOGC ( 1  1  0  0 0 0)

     celldm(1)=  10.260000  celldm(2)=   0.000000  celldm(3)=   0.000000
     celldm(4)=   0.000000  celldm(5)=   0.000000  celldm(6)=   0.000000

     crystal axes: (cart. coord. in units of alat)
               a(1) = (  -0.500000   0.000000   0.500000 )  
               a(2) = (   0.000000   0.500000   0.500000 )  
               a(3) = (  -0.500000   0.500000   0.000000 )  

     reciprocal axes: (cart. coord. in units 2 pi/alat)
               b(1) = ( -1.000000 -1.000000  1.000000 )  
               b(2) = (  1.000000  1.000000  1.000000 )  
               b(3) = ( -1.000000  1.000000 -1.000000 )  


     PseudoPot. # 1 for Si read from file:
     ./Si.pz-vbc.UPF
     MD5 check sum: c7253077ba58528355163ec29b6b8d4c
     Pseudo is Norm-conserving, Zval =  4.0
     Generated by new atomic code, or converted to UPF format
     Using radial grid of  431 points,  2 beta functions with: 
                l(1) =   0
                l(2) =   1

     atomic species   valence    mass     pseudopotential
        Si             4.00    28.08000     Si( 1.00)

     48 Sym. Ops., with inversion, found (24 have fractional translation)



   Cartesian axes

     site n.     atom                  positions (alat units)
         1           Si  tau(   1) = (   0.0000000   0.0000000   0.0000000  )
         2           Si  tau(   2) = (   0.2500000   0.2500000   0.2500000  )

     number of k points=   110

     Number of k-points >= 100: set verbosity='high' to print them.

     Dense  grid:     2277 G-vectors     FFT dimensions: (  20,  20,  20)

     Largest allocated arrays     est. size (Mb)     dimensions
        Kohn-Sham Wavefunctions         0.01 Mb     (     153,    4)
        NL pseudopotentials             0.02 Mb     (     153,    8)
        Each V/rho on FFT grid          0.06 Mb     (    4000)
        Each G-vector array             0.01 Mb     (    1139)
        G-vector shells                 0.00 Mb     (      58)
     Largest temporary arrays     est. size (Mb)     dimensions
        Auxiliary wavefunctions         0.04 Mb     (     153,   16)
        Each subspace H/S matrix        0.00 Mb     (      16,   16)
        Each <psi_i|beta_j> matrix      0.00 Mb     (       8,    4)
        Arrays for rho mixing           0.49 Mb     (    4000,    8)

     Initial potential from superposition of free atoms

     starting charge    7.99901, renormalised to    8.00000
     Starting wfc are    8 randomized atomic wfcs

     total cpu time spent up to now is        0.3 secs

     per-process dynamical memory:     4.9 Mb

     Self-consistent Calculation

     iteration #  1     ecut=    16.00 Ry     beta=0.70
     Davidson diagonalization with overlap
     ethr =  1.00E-02,  avg # of iterations =  2.0

     Threshold (ethr) on eigenvalues was too large:
     Diagonalizing with lowered threshold

     Davidson diagonalization with overlap
     ethr =  7.45E-04,  avg # of iterations =  1.0

     total cpu time spent up to now is        0.9 secs

     total energy              =     -15.83590090 Ry
     Harris-Foulkes estimate   =     -15.85580593 Ry
     estimated scf accuracy    <       0.05913799 Ry

     iteration #  2     ecut=    16.00 Ry     beta=0.70
     Davidson diagonalization with overlap
     ethr =  7.39E-04,  avg # of iterations =  1.0

     total cpu time spent up to now is        1.2 secs

     total energy              =     -15.83878672 Ry
     Harris-Foulkes estimate   =     -15.83909700 Ry
     estimated scf accuracy    <       0.00212493 Ry

     iteration #  3     ecut=    16.00 Ry     beta=0.70
     Davidson diagonalization with overlap
     ethr =  2.66E-05,  avg # of iterations =  2.6

     total cpu time spent up to now is        1.5 secs

     total energy              =     -15.83922177 Ry
     Harris-Foulkes estimate   =     -15.83925322 Ry
     estimated scf accuracy    <       0.00006823 Ry

     iteration #  4     ecut=    16.00 Ry     beta=0.70
     Davidson diagonalization with overlap
     ethr =  8.53E-07,  avg # of iterations =  2.1

     total cpu time spent up to now is        1.9 secs

     total energy              =     -15.83923638 Ry
     Harris-Foulkes estimate   =     -15.83923945 Ry
     estimated scf accuracy    <       0.00000685 Ry

     iteration #  5     ecut=    16.00 Ry     beta=0.70
     Davidson diagonalization with overlap
     ethr =  8.56E-08,  avg # of iterations =  2.1

     total cpu time spent up to now is        2.2 secs

     total energy              =     -15.83923736 Ry
     Harris-Foulkes estimate   =     -15.83923738 Ry
     estimated scf accuracy    <       0.00000004 Ry

     iteration #  6     ecut=    16.00 Ry     beta=0.70
     Davidson diagonalization with overlap
     ethr =  4.96E-10,  avg # of iterations =  2.9

     total cpu time spent up to now is        2.6 secs

     End of self-consistent calculation

     Number of k-points >= 100: set verbosity='high' to print the bands.

     highest occupied level (ev):     6.0175

!    total energy              =     -15.83923739 Ry
     Harris-Foulkes estimate   =     -15.83923739 Ry
     estimated scf accuracy    <          9.1E-10 Ry

     The total energy is the sum of the following terms:

     one-electron contribution =       4.66646715 Ry
     hartree contribution      =       1.08930242 Ry
     xc contribution           =      -4.79407737 Ry
     ewald contribution        =     -16.80092958 Ry

     convergence has been achieved in   6 iterations

     Writing output data file Si.save
 
     init_run     :      0.23s CPU      0.24s WALL (       1 calls)
     electrons    :      2.22s CPU      2.34s WALL (       1 calls)

     Called by init_run:
     wfcinit      :      0.21s CPU      0.22s WALL (       1 calls)
     potinit      :      0.00s CPU      0.00s WALL (       1 calls)

     Called by electrons:
     c_bands      :      1.90s CPU      1.98s WALL (       7 calls)
     sum_band     :      0.30s CPU      0.32s WALL (       7 calls)
     v_of_rho     :      0.00s CPU      0.00s WALL (       7 calls)
     mix_rho      :      0.00s CPU      0.00s WALL (       7 calls)

     Called by c_bands:
     init_us_2    :      0.05s CPU      0.06s WALL (    1650 calls)
     cegterg      :      1.83s CPU      1.87s WALL (     770 calls)

     Called by sum_band:

     Called by *egterg:
     h_psi        :      1.69s CPU      1.74s WALL (    2386 calls)
     g_psi        :      0.01s CPU      0.01s WALL (    1506 calls)
     cdiaghg      :      0.16s CPU      0.17s WALL (    2166 calls)

     Called by h_psi:
     add_vuspsi   :      0.03s CPU      0.04s WALL (    2386 calls)

     General routines
     calbec       :      0.04s CPU      0.05s WALL (    2386 calls)
     fft          :      0.00s CPU      0.00s WALL (      29 calls)
     fftw         :      1.71s CPU      1.70s WALL (   21440 calls)
     davcio       :      0.00s CPU      0.00s WALL (     110 calls)
 
     Parallel routines
     fft_scatter  :      0.51s CPU      0.52s WALL (   21469 calls)
 
     PWSCF        :     2.76s CPU         6.13s WALL

 
   This run was terminated on:  13: 7: 8  30Sep2015            

=------------------------------------------------------------------------------=
   JOB DONE.
=------------------------------------------------------------------------------=
