
     Program PROJWFC v.6.7MaX starts on 16Apr2021 at 14:54:35 

     This program is part of the open-source Quantum ESPRESSO suite
     for quantum simulation of materials; please cite
         "P. Giannozzi et al., J. Phys.:Condens. Matter 21 395502 (2009);
         "P. Giannozzi et al., J. Phys.:Condens. Matter 29 465901 (2017);
          URL http://www.quantum-espresso.org", 
     in publications or presentations arising from this work. More details at
     http://www.quantum-espresso.org/quote

     Parallel version (MPI), running on     1 processors

     MPI processes distributed on     1 nodes

     Reading xml data from directory:

     ./tmp/FeO.save/
     Message from routine volume:
     axis vectors are left-handed
     file Fe.pbesol-spn-kjpaw_psl.0.2.1.UPF: wavefunction(s)  3D renormalized
     file Fe.pbesol-spn-kjpaw_psl.0.2.1.UPF: wavefunction(s)  3D renormalized
     file O.pbesol-n-kjpaw_psl.0.1.UPF: wavefunction(s)  2P renormalized

     IMPORTANT: XC functional enforced from input :
     Exchange-correlation= PBESOL
                           (   1   4  10   8   0   0   0)
     Any further DFT definition will be discarded
     Please, verify this is what you really want

 
     G-vector sticks info
     --------------------
     sticks:   dense  smooth     PW     G-vecs:    dense   smooth      PW
     Sum        1061     539    189                17255     6111    1273
 

     Check: negative core charge=   -0.000246

     negative rho (up, down):  2.730E-04 2.729E-04

     Gaussian broadening (read from input): ngauss,degauss=   0    0.005000


     Calling projwave .... 
 
  Problem Sizes 
  natomwfc =           34
  nbnd     =           35
  nkstot   =           64
  npwx     =          780
  nkb      =           52
 

     Atomic states used for projection
     (read from pseudopotential files):

     state #   1: atom   1 (Fe1), wfc  1 (l=0 m= 1)
     state #   2: atom   1 (Fe1), wfc  2 (l=0 m= 1)
     state #   3: atom   1 (Fe1), wfc  3 (l=1 m= 1)
     state #   4: atom   1 (Fe1), wfc  3 (l=1 m= 2)
     state #   5: atom   1 (Fe1), wfc  3 (l=1 m= 3)
     state #   6: atom   1 (Fe1), wfc  4 (l=1 m= 1)
     state #   7: atom   1 (Fe1), wfc  4 (l=1 m= 2)
     state #   8: atom   1 (Fe1), wfc  4 (l=1 m= 3)
     state #   9: atom   1 (Fe1), wfc  5 (l=2 m= 1)
     state #  10: atom   1 (Fe1), wfc  5 (l=2 m= 2)
     state #  11: atom   1 (Fe1), wfc  5 (l=2 m= 3)
     state #  12: atom   1 (Fe1), wfc  5 (l=2 m= 4)
     state #  13: atom   1 (Fe1), wfc  5 (l=2 m= 5)
     state #  14: atom   2 (Fe2), wfc  1 (l=0 m= 1)
     state #  15: atom   2 (Fe2), wfc  2 (l=0 m= 1)
     state #  16: atom   2 (Fe2), wfc  3 (l=1 m= 1)
     state #  17: atom   2 (Fe2), wfc  3 (l=1 m= 2)
     state #  18: atom   2 (Fe2), wfc  3 (l=1 m= 3)
     state #  19: atom   2 (Fe2), wfc  4 (l=1 m= 1)
     state #  20: atom   2 (Fe2), wfc  4 (l=1 m= 2)
     state #  21: atom   2 (Fe2), wfc  4 (l=1 m= 3)
     state #  22: atom   2 (Fe2), wfc  5 (l=2 m= 1)
     state #  23: atom   2 (Fe2), wfc  5 (l=2 m= 2)
     state #  24: atom   2 (Fe2), wfc  5 (l=2 m= 3)
     state #  25: atom   2 (Fe2), wfc  5 (l=2 m= 4)
     state #  26: atom   2 (Fe2), wfc  5 (l=2 m= 5)
     state #  27: atom   3 (O  ), wfc  1 (l=0 m= 1)
     state #  28: atom   3 (O  ), wfc  2 (l=1 m= 1)
     state #  29: atom   3 (O  ), wfc  2 (l=1 m= 2)
     state #  30: atom   3 (O  ), wfc  2 (l=1 m= 3)
     state #  31: atom   4 (O  ), wfc  1 (l=0 m= 1)
     state #  32: atom   4 (O  ), wfc  2 (l=1 m= 1)
     state #  33: atom   4 (O  ), wfc  2 (l=1 m= 2)
     state #  34: atom   4 (O  ), wfc  2 (l=1 m= 3)

 k =   0.0000000000  0.0000000000  0.0000000000
==== e(   1) =   -76.18882 eV ==== 
     psi = 0.979*[#   1]+0.011*[#  15]+0.003*[#   2]
    |psi|^2 = 1.000
==== e(   2) =   -72.07029 eV ==== 
     psi = 0.979*[#  14]+0.011*[#   2]+0.003*[#  15]
    |psi|^2 = 1.000
==== e(   3) =   -42.34777 eV ==== 
     psi = 0.327*[#   3]+0.327*[#   4]+0.327*[#   5]+0.005*[#   6]+0.005*[#   7]
          +0.005*[#   8]
    |psi|^2 = 0.999
==== e(   4) =   -42.34776 eV ==== 
     psi = 0.327*[#   3]+0.327*[#   4]+0.327*[#   5]+0.005*[#   6]+0.005*[#   7]
          +0.005*[#   8]
    |psi|^2 = 0.999
==== e(   5) =   -40.75580 eV ==== 
     psi = 0.326*[#   3]+0.326*[#   4]+0.326*[#   5]+0.006*[#  19]+0.006*[#  20]
          +0.006*[#  21]
    |psi|^2 = 0.998
==== e(   6) =   -38.06221 eV ==== 
     psi = 0.328*[#  16]+0.328*[#  17]+0.328*[#  18]+0.004*[#  19]+0.004*[#  20]
          +0.004*[#  21]
    |psi|^2 = 0.999
==== e(   7) =   -38.06221 eV ==== 
     psi = 0.328*[#  16]+0.328*[#  17]+0.328*[#  18]+0.004*[#  19]+0.004*[#  20]
          +0.004*[#  21]
    |psi|^2 = 0.999
==== e(   8) =   -37.36293 eV ==== 
     psi = 0.326*[#  16]+0.326*[#  17]+0.326*[#  18]+0.006*[#   6]+0.006*[#   7]
          +0.006*[#   8]
    |psi|^2 = 0.998
==== e(   9) =    -6.00150 eV ==== 
     psi = 0.312*[#  27]+0.312*[#  31]+0.187*[#   2]+0.177*[#  15]+0.006*[#  14]
          +0.005*[#   1]
    |psi|^2 = 1.000
==== e(  10) =    -4.75461 eV ==== 
     psi = 0.387*[#  27]+0.387*[#  31]+0.036*[#   6]+0.036*[#   7]+0.036*[#   8]
          +0.036*[#  19]+0.036*[#  20]+0.036*[#  21]+0.001*[#  16]+0.001*[#  17]
          +0.001*[#  18]+0.001*[#   3]+0.001*[#   4]+0.001*[#   5]
    |psi|^2 = 0.999
==== e(  11) =     4.94160 eV ==== 
     psi = 0.100*[#   2]+0.091*[#  15]+0.080*[#  28]+0.080*[#  29]+0.080*[#  30]
          +0.080*[#  32]+0.080*[#  33]+0.080*[#  34]+0.070*[#  10]+0.070*[#  11]
          +0.070*[#  13]+0.037*[#  23]+0.037*[#  24]+0.037*[#  26]+0.003*[#   1]
          +0.002*[#  14]
    |psi|^2 = 0.999
==== e(  12) =     6.18141 eV ==== 
     psi = 0.252*[#   9]+0.252*[#  12]+0.099*[#  10]+0.099*[#  11]+0.099*[#  13]
          +0.031*[#  28]+0.031*[#  29]+0.031*[#  30]+0.031*[#  32]+0.031*[#  33]
          +0.031*[#  34]+0.005*[#  22]+0.005*[#  25]
    |psi|^2 = 1.000
==== e(  13) =     6.18143 eV ==== 
     psi = 0.252*[#   9]+0.252*[#  12]+0.099*[#  10]+0.099*[#  11]+0.099*[#  13]
          +0.031*[#  28]+0.031*[#  29]+0.031*[#  30]+0.031*[#  32]+0.031*[#  33]
          +0.031*[#  34]+0.005*[#  22]+0.005*[#  25]
    |psi|^2 = 1.000
==== e(  14) =     7.61640 eV ==== 
     psi = 0.231*[#  10]+0.231*[#  11]+0.231*[#  13]+0.133*[#   9]+0.133*[#  12]
          +0.006*[#  28]+0.006*[#  29]+0.006*[#  30]+0.006*[#  32]+0.006*[#  33]
          +0.006*[#  34]+0.001*[#  23]+0.001*[#  24]+0.001*[#  26]
    |psi|^2 = 1.000
==== e(  15) =     7.61642 eV ==== 
     psi = 0.231*[#  10]+0.231*[#  11]+0.231*[#  13]+0.133*[#   9]+0.133*[#  12]
          +0.006*[#  28]+0.006*[#  29]+0.006*[#  30]+0.006*[#  32]+0.006*[#  33]
          +0.006*[#  34]+0.001*[#  23]+0.001*[#  24]+0.001*[#  26]
    |psi|^2 = 1.000
==== e(  16) =     9.29282 eV ==== 
     psi = 0.219*[#  10]+0.219*[#  11]+0.219*[#  13]+0.095*[#  23]+0.095*[#  24]
          +0.095*[#  26]+0.007*[#  28]+0.007*[#  29]+0.007*[#  30]+0.007*[#  32]
          +0.007*[#  33]+0.007*[#  34]+0.007*[#   2]+0.006*[#  15]
    |psi|^2 = 0.997
==== e(  17) =    11.07017 eV ==== 
     psi = 0.163*[#  28]+0.163*[#  29]+0.163*[#  30]+0.163*[#  32]+0.163*[#  33]
          +0.163*[#  34]+0.002*[#   6]+0.002*[#   7]+0.002*[#   8]+0.002*[#  19]
          +0.002*[#  20]+0.002*[#  21]
    |psi|^2 = 0.995
==== e(  18) =    11.12800 eV ==== 
     psi = 0.163*[#  28]+0.163*[#  29]+0.163*[#  30]+0.163*[#  32]+0.163*[#  33]
          +0.163*[#  34]+0.002*[#   6]+0.002*[#   7]+0.002*[#   8]+0.002*[#  19]
          +0.002*[#  20]+0.002*[#  21]
    |psi|^2 = 0.995
==== e(  19) =    11.12800 eV ==== 
     psi = 0.163*[#  28]+0.163*[#  29]+0.163*[#  30]+0.163*[#  32]+0.163*[#  33]
          +0.163*[#  34]+0.002*[#   6]+0.002*[#   7]+0.002*[#   8]+0.002*[#  19]
          +0.002*[#  20]+0.002*[#  21]
    |psi|^2 = 0.995
==== e(  20) =    11.20016 eV ==== 
     psi = 0.105*[#   9]+0.105*[#  12]+0.099*[#  22]+0.099*[#  25]+0.091*[#  28]
          +0.091*[#  29]+0.091*[#  30]+0.091*[#  32]+0.091*[#  33]+0.091*[#  34]
          +0.011*[#  23]+0.011*[#  24]+0.011*[#  26]+0.002*[#  10]+0.002*[#  11]
          +0.002*[#  13]
    |psi|^2 = 0.994
==== e(  21) =    11.20016 eV ==== 
     psi = 0.105*[#   9]+0.105*[#  12]+0.099*[#  22]+0.099*[#  25]+0.091*[#  28]
          +0.091*[#  29]+0.091*[#  30]+0.091*[#  32]+0.091*[#  33]+0.091*[#  34]
          +0.011*[#  23]+0.011*[#  24]+0.011*[#  26]+0.002*[#  10]+0.002*[#  11]
          +0.002*[#  13]
    |psi|^2 = 0.994
==== e(  22) =    11.80464 eV ==== 
     psi = 0.199*[#  23]+0.199*[#  24]+0.199*[#  26]+0.043*[#  10]+0.043*[#  11]
          +0.043*[#  13]+0.038*[#  28]+0.038*[#  29]+0.038*[#  30]+0.038*[#  32]
          +0.038*[#  33]+0.038*[#  34]+0.026*[#   2]+0.019*[#  15]
    |psi|^2 = 0.999
==== e(  23) =    14.84002 eV ==== 
     psi = 0.322*[#   2]+0.283*[#  15]+0.186*[#  27]+0.186*[#  31]+0.009*[#  14]
          +0.007*[#   1]
    |psi|^2 = 0.994
==== e(  24) =    15.51509 eV ==== 
     psi = 0.258*[#  23]+0.258*[#  24]+0.258*[#  26]+0.046*[#  22]+0.046*[#  25]
          +0.019*[#  28]+0.019*[#  29]+0.019*[#  30]+0.019*[#  32]+0.019*[#  33]
          +0.019*[#  34]+0.004*[#   9]+0.004*[#  12]
    |psi|^2 = 0.994
==== e(  25) =    15.51509 eV ==== 
     psi = 0.258*[#  23]+0.258*[#  24]+0.258*[#  26]+0.046*[#  22]+0.046*[#  25]
          +0.019*[#  28]+0.019*[#  29]+0.019*[#  30]+0.019*[#  32]+0.019*[#  33]
          +0.019*[#  34]+0.004*[#   9]+0.004*[#  12]
    |psi|^2 = 0.994
==== e(  26) =    16.69526 eV ==== 
     psi = 0.347*[#  22]+0.347*[#  25]+0.060*[#  23]+0.060*[#  24]+0.060*[#  26]
          +0.018*[#  28]+0.018*[#  29]+0.018*[#  30]+0.018*[#  32]+0.018*[#  33]
          +0.018*[#  34]+0.006*[#   9]+0.006*[#  12]
    |psi|^2 = 0.993
==== e(  27) =    16.69526 eV ==== 
     psi = 0.347*[#  22]+0.347*[#  25]+0.060*[#  23]+0.060*[#  24]+0.060*[#  26]
          +0.018*[#  28]+0.018*[#  29]+0.018*[#  30]+0.018*[#  32]+0.018*[#  33]
          +0.018*[#  34]+0.006*[#   9]+0.006*[#  12]
    |psi|^2 = 0.993
==== e(  28) =    19.46571 eV ==== 
     psi = 0.121*[#   6]+0.121*[#   7]+0.121*[#   8]+0.114*[#  19]+0.114*[#  20]
          +0.114*[#  21]+0.100*[#  27]+0.100*[#  31]+0.002*[#  16]+0.002*[#  17]
          +0.002*[#  18]+0.001*[#   3]+0.001*[#   4]+0.001*[#   5]
    |psi|^2 = 0.913
==== e(  29) =    23.28763 eV ==== 
     psi = 0.391*[#  15]+0.329*[#   2]+0.039*[#  28]+0.039*[#  29]+0.039*[#  30]
          +0.039*[#  32]+0.039*[#  33]+0.039*[#  34]+0.005*[#   1]+0.004*[#  14]
          
    |psi|^2 = 0.965
==== e(  30) =    29.00124 eV ==== 
     psi = 0.130*[#   6]+0.130*[#   7]+0.130*[#   8]+0.109*[#  19]+0.109*[#  20]
          +0.109*[#  21]+0.002*[#   3]+0.002*[#   4]+0.002*[#   5]
    |psi|^2 = 0.726
==== e(  31) =    29.00124 eV ==== 
     psi = 0.130*[#   6]+0.130*[#   7]+0.130*[#   8]+0.109*[#  19]+0.109*[#  20]
          +0.109*[#  21]+0.002*[#   3]+0.002*[#   4]+0.002*[#   5]
    |psi|^2 = 0.726
==== e(  32) =    29.34433 eV ==== 
 
    |psi|^2 = 0.000
==== e(  33) =    31.04449 eV ==== 
     psi = 0.002*[#  23]+0.002*[#  24]+0.002*[#  26]
    |psi|^2 = 0.006
==== e(  34) =    31.04449 eV ==== 
     psi = 0.002*[#  23]+0.002*[#  24]+0.002*[#  26]
    |psi|^2 = 0.006
==== e(  35) =    31.18660 eV ==== 
 
    |psi|^2 = 0.004

 k =   0.2500000000 -0.0833333333 -0.0833333333
==== e(   1) =   -76.19376 eV ==== 
     psi = 0.946*[#   1]+0.010*[#   6]+0.010*[#   7]+0.010*[#   8]+0.005*[#  19]
          +0.005*[#  20]+0.005*[#  21]+0.001*[#   2]+0.001*[#  15]
    |psi|^2 = 1.000
==== e(   2) =   -72.07496 eV ==== 
     psi = 0.946*[#  14]+0.010*[#  19]+0.010*[#  20]+0.010*[#  21]+0.005*[#   6]
          +0.005*[#   7]+0.005*[#   8]+0.001*[#   2]+0.001*[#  15]
    |psi|^2 = 1.000
==== e(   3) =   -42.38797 eV ==== 
     psi = 0.330*[#   3]+0.330*[#   4]+0.330*[#   5]+0.002*[#   2]
    |psi|^2 = 0.998
==== e(   4) =   -42.37277 eV ==== 
     psi = 0.328*[#   3]+0.328*[#   4]+0.328*[#   5]+0.004*[#   6]+0.004*[#   7]
          +0.004*[#   8]
    |psi|^2 = 0.999
==== e(   5) =   -40.77578 eV ==== 
     psi = 0.328*[#   3]+0.328*[#   4]+0.328*[#   5]+0.004*[#  19]+0.004*[#  20]
          +0.004*[#  21]
    |psi|^2 = 0.998
==== e(   6) =   -38.10523 eV ==== 
     psi = 0.330*[#  16]+0.330*[#  17]+0.330*[#  18]+0.002*[#  15]
    |psi|^2 = 0.998
==== e(   7) =   -38.08773 eV ==== 
     psi = 0.329*[#  16]+0.329*[#  17]+0.329*[#  18]+0.003*[#  19]+0.003*[#  20]
          +0.003*[#  21]
    |psi|^2 = 0.998
==== e(   8) =   -37.38816 eV ==== 
     psi = 0.328*[#  16]+0.328*[#  17]+0.328*[#  18]+0.004*[#   6]+0.004*[#   7]
          +0.004*[#   8]
    |psi|^2 = 0.998
==== e(   9) =    -5.76266 eV ==== 
     psi = 0.304*[#  27]+0.304*[#  31]+0.087*[#   2]+0.082*[#  15]+0.034*[#   6]
          +0.034*[#   7]+0.034*[#   8]+0.034*[#  19]+0.034*[#  20]+0.034*[#  21]
          +0.008*[#  14]+0.008*[#   1]
    |psi|^2 = 1.000
==== e(  10) =    -4.79703 eV ==== 
     psi = 0.400*[#  27]+0.400*[#  31]+0.029*[#   6]+0.029*[#   7]+0.029*[#   8]
          +0.028*[#  19]+0.028*[#  20]+0.028*[#  21]+0.008*[#   9]+0.008*[#  12]
          +0.003*[#  22]+0.003*[#  25]
    |psi|^2 = 0.999
==== e(  11) =     5.48517 eV ==== 
     psi = 0.076*[#  10]+0.076*[#  11]+0.076*[#  13]+0.075*[#  28]+0.075*[#  29]
          +0.075*[#  30]+0.075*[#  32]+0.075*[#  33]+0.075*[#  34]+0.069*[#   2]
          +0.064*[#  15]+0.030*[#  23]+0.030*[#  24]+0.030*[#  26]+0.024*[#   9]
          +0.024*[#  12]+0.008*[#  19]+0.008*[#  20]+0.008*[#  21]+0.007*[#   6]
          +0.007*[#   7]+0.007*[#   8]+0.002*[#   1]+0.002*[#  14]
    |psi|^2 = 0.999
==== e(  12) =     6.20017 eV ==== 
     psi = 0.171*[#   9]+0.171*[#  12]+0.126*[#  10]+0.126*[#  11]+0.126*[#  13]
          +0.036*[#  28]+0.036*[#  29]+0.036*[#  30]+0.036*[#  32]+0.036*[#  33]
          +0.036*[#  34]+0.006*[#   6]+0.006*[#   7]+0.006*[#   8]+0.006*[#  23]
          +0.006*[#  24]+0.006*[#  26]+0.005*[#   2]+0.005*[#  19]+0.005*[#  20]
          +0.005*[#  21]+0.004*[#  15]+0.001*[#  27]+0.001*[#  31]
    |psi|^2 = 1.000
==== e(  13) =     6.42297 eV ==== 
     psi = 0.291*[#   9]+0.291*[#  12]+0.068*[#  10]+0.068*[#  11]+0.068*[#  13]
          +0.033*[#  28]+0.033*[#  29]+0.033*[#  30]+0.033*[#  32]+0.033*[#  33]
          +0.033*[#  34]+0.005*[#  22]+0.005*[#  25]+0.001*[#   6]+0.001*[#   7]
          +0.001*[#   8]
    |psi|^2 = 1.000
==== e(  14) =     7.34864 eV ==== 
     psi = 0.169*[#  10]+0.169*[#  11]+0.169*[#  13]+0.168*[#   9]+0.168*[#  12]
          +0.021*[#  28]+0.021*[#  29]+0.021*[#  30]+0.021*[#  32]+0.021*[#  33]
          +0.021*[#  34]+0.006*[#   2]+0.005*[#  15]+0.005*[#  27]+0.005*[#  31]
          +0.002*[#  23]+0.002*[#  24]+0.002*[#  26]+0.001*[#  22]+0.001*[#  25]
          
    |psi|^2 = 0.999
==== e(  15) =     7.46159 eV ==== 
     psi = 0.252*[#  10]+0.252*[#  11]+0.252*[#  13]+0.088*[#   9]+0.088*[#  12]
          +0.010*[#  28]+0.010*[#  29]+0.010*[#  30]+0.010*[#  32]+0.010*[#  33]
          +0.010*[#  34]+0.001*[#  19]+0.001*[#  20]+0.001*[#  21]+0.001*[#  23]
          +0.001*[#  24]+0.001*[#  26]
    |psi|^2 = 1.000
==== e(  16) =     9.11254 eV ==== 
     psi = 0.163*[#  10]+0.163*[#  11]+0.163*[#  13]+0.058*[#  23]+0.058*[#  24]
          +0.058*[#  26]+0.042*[#  28]+0.042*[#  29]+0.042*[#  30]+0.042*[#  32]
          +0.042*[#  33]+0.042*[#  34]+0.036*[#   2]+0.008*[#  22]+0.008*[#  25]
          +0.008*[#  27]+0.008*[#  31]+0.003*[#   9]+0.003*[#  12]+0.001*[#  15]
          +0.001*[#  19]+0.001*[#  20]+0.001*[#  21]
    |psi|^2 = 0.997
==== e(  17) =     9.79948 eV ==== 
     psi = 0.104*[#  28]+0.104*[#  29]+0.104*[#  30]+0.104*[#  32]+0.104*[#  33]
          +0.104*[#  34]+0.050*[#  22]+0.050*[#  25]+0.040*[#  10]+0.040*[#  11]
          +0.040*[#  13]+0.028*[#  23]+0.028*[#  24]+0.028*[#  26]+0.007*[#  19]
          +0.007*[#  20]+0.007*[#  21]+0.006*[#   9]+0.006*[#  12]+0.005*[#   6]
          +0.005*[#   7]+0.005*[#   8]+0.005*[#   2]+0.005*[#  27]+0.005*[#  31]
          +0.003*[#  15]
    |psi|^2 = 0.996
==== e(  18) =    10.47436 eV ==== 
     psi = 0.106*[#  28]+0.106*[#  29]+0.106*[#  30]+0.106*[#  32]+0.106*[#  33]
          +0.106*[#  34]+0.051*[#  10]+0.051*[#  11]+0.051*[#  13]+0.051*[#  15]
          +0.026*[#   9]+0.026*[#  12]+0.022*[#  27]+0.022*[#  31]+0.013*[#   2]
          +0.009*[#  23]+0.009*[#  24]+0.009*[#  26]+0.005*[#   6]+0.005*[#   7]
          +0.005*[#   8]+0.002*[#  22]+0.002*[#  25]+0.002*[#  14]+0.001*[#   1]
          
    |psi|^2 = 0.996
==== e(  19) =    10.72824 eV ==== 
     psi = 0.132*[#  28]+0.132*[#  29]+0.132*[#  30]+0.132*[#  32]+0.132*[#  33]
          +0.132*[#  34]+0.054*[#  22]+0.054*[#  25]+0.022*[#   9]+0.022*[#  12]
          +0.012*[#  10]+0.012*[#  11]+0.012*[#  13]+0.005*[#   6]+0.005*[#   7]
          +0.005*[#   8]
    |psi|^2 = 0.996
==== e(  20) =    11.50521 eV ==== 
     psi = 0.116*[#  28]+0.116*[#  29]+0.116*[#  30]+0.116*[#  32]+0.116*[#  33]
          +0.116*[#  34]+0.091*[#   9]+0.091*[#  12]+0.035*[#  22]+0.035*[#  25]
          +0.010*[#  23]+0.010*[#  24]+0.010*[#  26]+0.005*[#  19]+0.005*[#  20]
          +0.005*[#  21]
    |psi|^2 = 0.995
==== e(  21) =    11.66049 eV ==== 
     psi = 0.107*[#  28]+0.107*[#  29]+0.107*[#  30]+0.107*[#  32]+0.107*[#  33]
          +0.107*[#  34]+0.070*[#   9]+0.070*[#  12]+0.045*[#  23]+0.045*[#  24]
          +0.045*[#  26]+0.018*[#  15]+0.007*[#  27]+0.007*[#  31]+0.007*[#  10]
          +0.007*[#  11]+0.007*[#  13]+0.004*[#  19]+0.004*[#  20]+0.004*[#  21]
          +0.002*[#   6]+0.002*[#   7]+0.002*[#   8]+0.002*[#   2]
    |psi|^2 = 0.994
==== e(  22) =    11.76147 eV ==== 
     psi = 0.167*[#  23]+0.167*[#  24]+0.167*[#  26]+0.053*[#  28]+0.053*[#  29]
          +0.053*[#  30]+0.053*[#  32]+0.053*[#  33]+0.053*[#  34]+0.029*[#  10]
          +0.029*[#  11]+0.029*[#  13]+0.024*[#   2]+0.018*[#   9]+0.018*[#  12]
          +0.004*[#  27]+0.004*[#  31]+0.003*[#   6]+0.003*[#   7]+0.003*[#   8]
          +0.003*[#  15]+0.001*[#  19]+0.001*[#  20]+0.001*[#  21]+0.001*[#  22]
          +0.001*[#  25]
    |psi|^2 = 0.997
==== e(  23) =    15.40291 eV ==== 
     psi = 0.226*[#  23]+0.226*[#  24]+0.226*[#  26]+0.092*[#  22]+0.092*[#  25]
          +0.019*[#  28]+0.019*[#  29]+0.019*[#  30]+0.019*[#  32]+0.019*[#  33]
          +0.019*[#  34]+0.007*[#   2]+0.003*[#  27]+0.003*[#  31]+0.001*[#   9]
          +0.001*[#  12]
    |psi|^2 = 0.994
==== e(  24) =    15.52557 eV ==== 
     psi = 0.236*[#  23]+0.236*[#  24]+0.236*[#  26]+0.083*[#  22]+0.083*[#  25]
          +0.018*[#  28]+0.018*[#  29]+0.018*[#  30]+0.018*[#  32]+0.018*[#  33]
          +0.018*[#  34]+0.004*[#   9]+0.004*[#  12]+0.002*[#   6]+0.002*[#   7]
          +0.002*[#   8]
    |psi|^2 = 0.996
==== e(  25) =    16.00091 eV ==== 
     psi = 0.144*[#  22]+0.144*[#  25]+0.108*[#   2]+0.092*[#  27]+0.092*[#  31]
          +0.062*[#  15]+0.055*[#  23]+0.055*[#  24]+0.055*[#  26]+0.021*[#  19]
          +0.021*[#  20]+0.021*[#  21]+0.017*[#   6]+0.017*[#   7]+0.017*[#   8]
          +0.010*[#  28]+0.010*[#  29]+0.010*[#  30]+0.010*[#  32]+0.010*[#  33]
          +0.010*[#  34]+0.005*[#  14]+0.004*[#   1]+0.002*[#   9]+0.002*[#  12]
          
    |psi|^2 = 0.992
==== e(  26) =    16.78581 eV ==== 
     psi = 0.321*[#  22]+0.321*[#  25]+0.083*[#  23]+0.083*[#  24]+0.083*[#  26]
          +0.016*[#  28]+0.016*[#  29]+0.016*[#  30]+0.016*[#  32]+0.016*[#  33]
          +0.016*[#  34]+0.004*[#   9]+0.004*[#  12]
    |psi|^2 = 0.995
==== e(  27) =    16.86450 eV ==== 
     psi = 0.185*[#  22]+0.185*[#  25]+0.065*[#  15]+0.064*[#  27]+0.064*[#  31]
          +0.058*[#   2]+0.029*[#  28]+0.029*[#  29]+0.029*[#  30]+0.029*[#  32]
          +0.029*[#  33]+0.029*[#  34]+0.028*[#  23]+0.028*[#  24]+0.028*[#  26]
          +0.022*[#   6]+0.022*[#   7]+0.022*[#   8]+0.012*[#  19]+0.012*[#  20]
          +0.012*[#  21]+0.004*[#  14]+0.003*[#   1]
    |psi|^2 = 0.994
==== e(  28) =    20.91577 eV ==== 
     psi = 0.111*[#  19]+0.111*[#  20]+0.111*[#  21]+0.108*[#   6]+0.108*[#   7]
          +0.108*[#   8]+0.063*[#  27]+0.063*[#  31]+0.014*[#  28]+0.014*[#  29]
          +0.014*[#  30]+0.014*[#  32]+0.014*[#  33]+0.014*[#  34]+0.009*[#  22]
          +0.009*[#  25]+0.005*[#  23]+0.005*[#  24]+0.005*[#  26]+0.002*[#   2]
          +0.002*[#  15]+0.001*[#   9]+0.001*[#  12]
    |psi|^2 = 0.913
==== e(  29) =    23.17901 eV ==== 
     psi = 0.346*[#  15]+0.307*[#   2]+0.036*[#  28]+0.036*[#  29]+0.036*[#  30]
          +0.036*[#  32]+0.036*[#  33]+0.036*[#  34]+0.016*[#  19]+0.016*[#  20]
          +0.016*[#  21]+0.010*[#   6]+0.010*[#   7]+0.010*[#   8]+0.005*[#   1]
          +0.003*[#  14]
    |psi|^2 = 0.964
==== e(  30) =    26.52967 eV ==== 
     psi = 0.131*[#   6]+0.131*[#   7]+0.131*[#   8]+0.093*[#  19]+0.093*[#  20]
          +0.093*[#  21]+0.070*[#   2]+0.038*[#  15]+0.004*[#  28]+0.004*[#  29]
          +0.004*[#  30]+0.004*[#  32]+0.004*[#  33]+0.004*[#  34]+0.004*[#   1]
          +0.002*[#  27]+0.002*[#  31]+0.001*[#   3]+0.001*[#   4]+0.001*[#   5]
          +0.001*[#  23]+0.001*[#  24]+0.001*[#  26]+0.001*[#  14]
    |psi|^2 = 0.823
==== e(  31) =    27.18649 eV ==== 
     psi = 0.032*[#  19]+0.032*[#  20]+0.032*[#  21]+0.024*[#  15]+0.023*[#   6]
          +0.023*[#   7]+0.023*[#   8]+0.008*[#   2]+0.004*[#  23]+0.004*[#  24]
          +0.004*[#  26]+0.002*[#  14]+0.001*[#   1]
    |psi|^2 = 0.221
==== e(  32) =    29.75660 eV ==== 
     psi = 0.158*[#   6]+0.158*[#   7]+0.158*[#   8]+0.085*[#  19]+0.085*[#  20]
          +0.085*[#  21]+0.003*[#  28]+0.003*[#  29]+0.003*[#  30]+0.003*[#  32]
          +0.003*[#  33]+0.003*[#  34]+0.002*[#   3]+0.002*[#   4]+0.002*[#   5]
          
    |psi|^2 = 0.755
==== e(  33) =    30.68836 eV ==== 
     psi = 0.089*[#  19]+0.089*[#  20]+0.089*[#  21]+0.039*[#   6]+0.039*[#   7]
          +0.039*[#   8]+0.002*[#  23]+0.002*[#  24]+0.002*[#  26]+0.002*[#  16]
          +0.002*[#  17]+0.002*[#  18]+0.001*[#  28]+0.001*[#  29]+0.001*[#  30]
          +0.001*[#  32]+0.001*[#  33]+0.001*[#  34]+0.001*[#   3]+0.001*[#   4]
          +0.001*[#   5]
    |psi|^2 = 0.408
==== e(  34) =    30.87782 eV ==== 
     psi = 0.058*[#  15]+0.050*[#   2]+0.029*[#  19]+0.029*[#  20]+0.029*[#  21]
          +0.020*[#   6]+0.020*[#   7]+0.020*[#   8]+0.006*[#  14]+0.005*[#   1]
          +0.001*[#  23]+0.001*[#  24]+0.001*[#  26]+0.001*[#  27]+0.001*[#  31]
          
    |psi|^2 = 0.281
==== e(  35) =    33.80983 eV ==== 
     psi = 0.049*[#  15]+0.040*[#   2]+0.028*[#  19]+0.028*[#  20]+0.028*[#  21]
          +0.027*[#   6]+0.027*[#   7]+0.027*[#   8]+0.006*[#   1]+0.005*[#  14]
          +0.001*[#  27]+0.001*[#  31]
    |psi|^2 = 0.273

 k =   0.5000000000 -0.1666666667 -0.1666666667
==== e(   1) =   -76.19156 eV ==== 
     psi = 0.952*[#   1]+0.008*[#   2]+0.007*[#   6]+0.007*[#   7]+0.007*[#   8]
          +0.005*[#  19]+0.005*[#  20]+0.005*[#  21]
    |psi|^2 = 1.000
==== e(   2) =   -72.07034 eV ==== 
     psi = 0.952*[#  14]+0.007*[#  19]+0.007*[#  20]+0.007*[#  21]+0.007*[#  15]
          +0.005*[#   6]+0.005*[#   7]+0.005*[#   8]
    |psi|^2 = 1.000
==== e(   3) =   -42.43027 eV ==== 
     psi = 0.329*[#   3]+0.329*[#   4]+0.329*[#   5]
    |psi|^2 = 0.998
==== e(   4) =   -42.37708 eV ==== 
     psi = 0.330*[#   3]+0.330*[#   4]+0.330*[#   5]+0.002*[#   6]+0.002*[#   7]
          +0.002*[#   8]
    |psi|^2 = 0.998
==== e(   5) =   -40.77326 eV ==== 
     psi = 0.330*[#   3]+0.330*[#   4]+0.330*[#   5]
    |psi|^2 = 0.998
==== e(   6) =   -38.15228 eV ==== 
     psi = 0.329*[#  16]+0.329*[#  17]+0.329*[#  18]
    |psi|^2 = 0.998
==== e(   7) =   -38.09430 eV ==== 
     psi = 0.330*[#  16]+0.330*[#  17]+0.330*[#  18]+0.002*[#  19]+0.002*[#  20]
          +0.002*[#  21]
    |psi|^2 = 0.998
==== e(   8) =   -37.38903 eV ==== 
     psi = 0.330*[#  16]+0.330*[#  17]+0.330*[#  18]
    |psi|^2 = 0.998
==== e(   9) =    -5.30212 eV ==== 
     psi = 0.348*[#  27]+0.348*[#  31]+0.043*[#  19]+0.043*[#  20]+0.043*[#  21]
          +0.029*[#   6]+0.029*[#   7]+0.029*[#   8]+0.028*[#   2]+0.024*[#  15]
          +0.013*[#   9]+0.013*[#  12]+0.004*[#  14]+0.004*[#   1]
    |psi|^2 = 1.000
==== e(  10) =    -4.80414 eV ==== 
     psi = 0.417*[#  27]+0.417*[#  31]+0.027*[#   6]+0.027*[#   7]+0.027*[#   8]
          +0.013*[#   9]+0.013*[#  12]+0.011*[#  19]+0.011*[#  20]+0.011*[#  21]
          +0.009*[#  22]+0.009*[#  25]+0.004*[#  15]+0.002*[#   2]
    |psi|^2 = 0.999
==== e(  11) =     5.66808 eV ==== 
     psi = 0.188*[#  10]+0.188*[#  11]+0.188*[#  13]+0.060*[#   9]+0.060*[#  12]
          +0.038*[#  28]+0.038*[#  29]+0.038*[#  30]+0.038*[#  32]+0.038*[#  33]
          +0.038*[#  34]+0.027*[#   2]+0.010*[#  19]+0.010*[#  20]+0.010*[#  21]
          +0.007*[#  15]+0.003*[#   6]+0.003*[#   7]+0.003*[#   8]+0.002*[#  27]
          +0.002*[#  31]+0.002*[#  23]+0.002*[#  24]+0.002*[#  26]
    |psi|^2 = 1.000
==== e(  12) =     6.40995 eV ==== 
     psi = 0.160*[#   9]+0.160*[#  12]+0.065*[#  10]+0.065*[#  11]+0.065*[#  13]
          +0.059*[#  28]+0.059*[#  29]+0.059*[#  30]+0.059*[#  32]+0.059*[#  33]
          +0.059*[#  34]+0.028*[#  15]+0.017*[#  19]+0.017*[#  20]+0.017*[#  21]
          +0.011*[#   2]+0.009*[#  27]+0.009*[#  31]+0.005*[#  22]+0.005*[#  25]
          +0.003*[#  14]+0.002*[#   6]+0.002*[#   7]+0.002*[#   8]+0.001*[#   1]
          
    |psi|^2 = 0.999
==== e(  13) =     6.70899 eV ==== 
     psi = 0.370*[#   9]+0.370*[#  12]+0.040*[#  28]+0.040*[#  29]+0.040*[#  30]
          +0.040*[#  32]+0.040*[#  33]+0.040*[#  34]+0.003*[#  19]+0.003*[#  20]
          +0.003*[#  21]+0.002*[#  10]+0.002*[#  11]+0.002*[#  13]+0.002*[#  22]
          +0.002*[#  25]
    |psi|^2 = 1.000
==== e(  14) =     7.27665 eV ==== 
     psi = 0.081*[#  28]+0.081*[#  29]+0.081*[#  30]+0.081*[#  32]+0.081*[#  33]
          +0.081*[#  34]+0.055*[#  10]+0.055*[#  11]+0.055*[#  13]+0.039*[#  23]
          +0.039*[#  24]+0.039*[#  26]+0.030*[#   6]+0.030*[#   7]+0.030*[#   8]
          +0.030*[#   9]+0.030*[#  12]+0.024*[#   2]+0.008*[#  22]+0.008*[#  25]
          +0.007*[#  19]+0.007*[#  20]+0.007*[#  21]+0.004*[#  27]+0.004*[#  31]
          +0.002*[#  15]+0.001*[#   1]
    |psi|^2 = 0.998
==== e(  15) =     7.48864 eV ==== 
     psi = 0.310*[#  10]+0.310*[#  11]+0.310*[#  13]+0.008*[#  28]+0.008*[#  29]
          +0.008*[#  30]+0.008*[#  32]+0.008*[#  33]+0.008*[#  34]+0.005*[#   9]
          +0.005*[#  12]+0.002*[#   6]+0.002*[#   7]+0.002*[#   8]+0.002*[#  22]
          +0.002*[#  25]
    |psi|^2 = 1.000
==== e(  16) =     8.69881 eV ==== 
     psi = 0.103*[#  28]+0.103*[#  29]+0.103*[#  30]+0.103*[#  32]+0.103*[#  33]
          +0.103*[#  34]+0.058*[#  10]+0.058*[#  11]+0.058*[#  13]+0.034*[#  15]
          +0.025*[#   2]+0.018*[#  22]+0.018*[#  25]+0.013*[#  23]+0.013*[#  24]
          +0.013*[#  26]+0.013*[#   6]+0.013*[#   7]+0.013*[#   8]+0.008*[#  19]
          +0.008*[#  20]+0.008*[#  21]+0.001*[#   9]+0.001*[#  12]
    |psi|^2 = 0.998
==== e(  17) =     8.76253 eV ==== 
     psi = 0.106*[#  10]+0.106*[#  11]+0.106*[#  13]+0.096*[#   9]+0.096*[#  12]
          +0.051*[#  28]+0.051*[#  29]+0.051*[#  30]+0.051*[#  32]+0.051*[#  33]
          +0.051*[#  34]+0.024*[#  15]+0.022*[#  27]+0.022*[#  31]+0.021*[#   2]
          +0.021*[#  23]+0.021*[#  24]+0.021*[#  26]+0.007*[#   6]+0.007*[#   7]
          +0.007*[#   8]+0.001*[#  19]+0.001*[#  20]+0.001*[#  21]
    |psi|^2 = 0.997
==== e(  18) =    10.15089 eV ==== 
     psi = 0.129*[#  28]+0.129*[#  29]+0.129*[#  30]+0.129*[#  32]+0.129*[#  33]
          +0.129*[#  34]+0.058*[#  22]+0.058*[#  25]+0.015*[#  10]+0.015*[#  11]
          +0.015*[#  13]+0.013*[#   9]+0.013*[#  12]+0.011*[#   6]+0.011*[#   7]
          +0.011*[#   8]
    |psi|^2 = 0.997
==== e(  19) =    10.35830 eV ==== 
     psi = 0.169*[#  10]+0.169*[#  11]+0.169*[#  13]+0.050*[#  28]+0.050*[#  29]
          +0.050*[#  30]+0.050*[#  32]+0.050*[#  33]+0.050*[#  34]+0.033*[#  23]
          +0.033*[#  24]+0.033*[#  26]+0.016*[#  15]+0.013*[#   2]+0.010*[#  19]
          +0.010*[#  20]+0.010*[#  21]+0.008*[#  27]+0.008*[#  31]+0.007*[#   9]
          +0.007*[#  12]
    |psi|^2 = 0.998
==== e(  20) =    11.26489 eV ==== 
     psi = 0.104*[#   9]+0.104*[#  12]+0.096*[#  28]+0.096*[#  29]+0.096*[#  30]
          +0.096*[#  32]+0.096*[#  33]+0.096*[#  34]+0.024*[#  23]+0.024*[#  24]
          +0.024*[#  26]+0.023*[#  22]+0.023*[#  25]+0.017*[#  27]+0.017*[#  31]
          +0.008*[#  15]+0.005*[#   6]+0.005*[#   7]+0.005*[#   8]+0.005*[#  10]
          +0.005*[#  11]+0.005*[#  13]+0.005*[#  19]+0.005*[#  20]+0.005*[#  21]
          +0.004*[#   2]
    |psi|^2 = 0.993
==== e(  21) =    11.61590 eV ==== 
     psi = 0.215*[#  23]+0.215*[#  24]+0.215*[#  26]+0.041*[#  28]+0.041*[#  29]
          +0.041*[#  30]+0.041*[#  32]+0.041*[#  33]+0.041*[#  34]+0.017*[#  10]
          +0.017*[#  11]+0.017*[#  13]+0.010*[#   2]+0.010*[#   9]+0.010*[#  12]
          +0.006*[#  15]+0.002*[#  19]+0.002*[#  20]+0.002*[#  21]+0.002*[#   6]
          +0.002*[#   7]+0.002*[#   8]
    |psi|^2 = 0.997
==== e(  22) =    11.82006 eV ==== 
     psi = 0.115*[#  28]+0.115*[#  29]+0.115*[#  30]+0.115*[#  32]+0.115*[#  33]
          +0.115*[#  34]+0.109*[#   9]+0.109*[#  12]+0.011*[#  19]+0.011*[#  20]
          +0.011*[#  21]+0.010*[#  22]+0.010*[#  25]+0.006*[#  10]+0.006*[#  11]
          +0.006*[#  13]+0.005*[#  23]+0.005*[#  24]+0.005*[#  26]
    |psi|^2 = 0.996
==== e(  23) =    15.35565 eV ==== 
     psi = 0.232*[#  23]+0.232*[#  24]+0.232*[#  26]+0.087*[#  22]+0.087*[#  25]
          +0.017*[#  28]+0.017*[#  29]+0.017*[#  30]+0.017*[#  32]+0.017*[#  33]
          +0.017*[#  34]+0.007*[#   2]+0.003*[#  27]+0.003*[#  31]
    |psi|^2 = 0.994
==== e(  24) =    15.52460 eV ==== 
     psi = 0.202*[#  23]+0.202*[#  24]+0.202*[#  26]+0.163*[#  22]+0.163*[#  25]
          +0.010*[#  28]+0.010*[#  29]+0.010*[#  30]+0.010*[#  32]+0.010*[#  33]
          +0.010*[#  34]+0.002*[#   9]+0.002*[#  12]+0.002*[#   6]+0.002*[#   7]
          +0.002*[#   8]
    |psi|^2 = 0.998
==== e(  25) =    16.33001 eV ==== 
     psi = 0.304*[#  22]+0.304*[#  25]+0.068*[#  23]+0.068*[#  24]+0.068*[#  26]
          +0.035*[#  27]+0.035*[#  31]+0.030*[#   2]+0.013*[#   6]+0.013*[#   7]
          +0.013*[#   8]+0.005*[#  19]+0.005*[#  20]+0.005*[#  21]+0.003*[#  15]
          +0.003*[#  28]+0.003*[#  29]+0.003*[#  30]+0.003*[#  32]+0.003*[#  33]
          +0.003*[#  34]+0.001*[#  14]
    |psi|^2 = 0.991
==== e(  26) =    16.98442 eV ==== 
     psi = 0.265*[#  22]+0.265*[#  25]+0.124*[#  23]+0.124*[#  24]+0.124*[#  26]
          +0.015*[#  28]+0.015*[#  29]+0.015*[#  30]+0.015*[#  32]+0.015*[#  33]
          +0.015*[#  34]
    |psi|^2 = 0.997
==== e(  27) =    19.22475 eV ==== 
     psi = 0.100*[#   2]+0.077*[#  27]+0.077*[#  31]+0.066*[#  15]+0.050*[#  28]
          +0.050*[#  29]+0.050*[#  30]+0.050*[#  32]+0.050*[#  33]+0.050*[#  34]
          +0.045*[#   6]+0.045*[#   7]+0.045*[#   8]+0.043*[#  19]+0.043*[#  20]
          +0.043*[#  21]+0.039*[#  22]+0.039*[#  25]+0.005*[#  14]+0.003*[#   1]
          +0.003*[#   9]+0.003*[#  12]+0.002*[#  23]+0.002*[#  24]+0.002*[#  26]
          
    |psi|^2 = 0.988
==== e(  28) =    22.70263 eV ==== 
     psi = 0.242*[#   2]+0.202*[#  15]+0.056*[#  19]+0.056*[#  20]+0.056*[#  21]
          +0.032*[#  28]+0.032*[#  29]+0.032*[#  30]+0.032*[#  32]+0.032*[#  33]
          +0.032*[#  34]+0.028*[#   6]+0.028*[#   7]+0.028*[#   8]+0.010*[#  27]
          +0.010*[#  31]+0.004*[#  22]+0.004*[#  25]+0.004*[#   1]+0.002*[#  23]
          +0.002*[#  24]+0.002*[#  26]+0.001*[#   9]+0.001*[#  12]
    |psi|^2 = 0.932
==== e(  29) =    23.20801 eV ==== 
     psi = 0.196*[#   2]+0.170*[#  15]+0.079*[#   6]+0.079*[#   7]+0.079*[#   8]
          +0.075*[#  19]+0.075*[#  20]+0.075*[#  21]+0.027*[#  27]+0.027*[#  31]
          +0.007*[#   1]+0.003*[#  14]+0.003*[#  23]+0.003*[#  24]+0.003*[#  26]
          
    |psi|^2 = 0.908
==== e(  30) =    23.96491 eV ==== 
     psi = 0.121*[#   6]+0.121*[#   7]+0.121*[#   8]+0.119*[#  19]+0.119*[#  20]
          +0.119*[#  21]+0.024*[#  28]+0.024*[#  29]+0.024*[#  30]+0.024*[#  32]
          +0.024*[#  33]+0.024*[#  34]+0.006*[#  15]+0.005*[#   2]+0.002*[#  23]
          +0.002*[#  24]+0.002*[#  26]
    |psi|^2 = 0.890
==== e(  31) =    25.19304 eV ==== 
     psi = 0.132*[#  15]+0.064*[#   6]+0.064*[#   7]+0.064*[#   8]+0.058*[#   2]
          +0.041*[#  19]+0.041*[#  20]+0.041*[#  21]+0.007*[#  14]+0.007*[#  23]
          +0.007*[#  24]+0.007*[#  26]+0.006*[#  28]+0.006*[#  29]+0.006*[#  30]
          +0.006*[#  32]+0.006*[#  33]+0.006*[#  34]+0.006*[#   1]+0.002*[#  27]
          +0.002*[#  31]
    |psi|^2 = 0.587
==== e(  32) =    28.08464 eV ==== 
     psi = 0.199*[#  15]+0.143*[#   2]+0.056*[#  19]+0.056*[#  20]+0.056*[#  21]
          +0.056*[#   6]+0.056*[#   7]+0.056*[#   8]+0.014*[#  14]+0.012*[#   1]
          +0.002*[#  27]+0.002*[#  31]
    |psi|^2 = 0.722
==== e(  33) =    29.95322 eV ==== 
     psi = 0.200*[#   6]+0.200*[#   7]+0.200*[#   8]+0.021*[#  19]+0.021*[#  20]
          +0.021*[#  21]+0.005*[#  28]+0.005*[#  29]+0.005*[#  30]+0.005*[#  32]
          +0.005*[#  33]+0.005*[#  34]+0.002*[#   3]+0.002*[#   4]+0.002*[#   5]
          +0.001*[#  23]+0.001*[#  24]+0.001*[#  26]
    |psi|^2 = 0.706
==== e(  34) =    30.78636 eV ==== 
     psi = 0.220*[#  19]+0.220*[#  20]+0.220*[#  21]+0.047*[#   6]+0.047*[#   7]
          +0.047*[#   8]+0.007*[#  28]+0.007*[#  29]+0.007*[#  30]+0.007*[#  32]
          +0.007*[#  33]+0.007*[#  34]+0.002*[#  16]+0.002*[#  17]+0.002*[#  18]
          
    |psi|^2 = 0.850
==== e(  35) =    32.34529 eV ==== 
     psi = 0.055*[#  19]+0.055*[#  20]+0.055*[#  21]+0.049*[#   6]+0.049*[#   7]
          +0.049*[#   8]+0.002*[#  28]+0.002*[#  29]+0.002*[#  30]+0.002*[#  32]
          +0.002*[#  33]+0.002*[#  34]
    |psi|^2 = 0.333

 k =  -0.7500000000  0.2500000000  0.2500000000
==== e(   1) =   -76.19265 eV ==== 
     psi = 0.973*[#   1]+0.008*[#   2]+0.005*[#  19]+0.005*[#  20]+0.005*[#  21]
          
    |psi|^2 = 1.000
==== e(   2) =   -72.06899 eV ==== 
     psi = 0.974*[#  14]+0.007*[#  15]+0.005*[#   6]+0.005*[#   7]+0.005*[#   8]
          
    |psi|^2 = 1.000
==== e(   3) =   -42.45155 eV ==== 
     psi = 0.329*[#   3]+0.329*[#   4]+0.329*[#   5]+0.002*[#   6]+0.002*[#   7]
          +0.002*[#   8]
    |psi|^2 = 0.998
==== e(   4) =   -42.38069 eV ==== 
     psi = 0.331*[#   3]+0.331*[#   4]+0.331*[#   5]+0.001*[#   6]+0.001*[#   7]
          +0.001*[#   8]
    |psi|^2 = 0.998
==== e(   5) =   -40.77936 eV ==== 
     psi = 0.329*[#   3]+0.329*[#   4]+0.329*[#   5]+0.002*[#   6]+0.002*[#   7]
          +0.002*[#   8]
    |psi|^2 = 0.998
==== e(   6) =   -38.17639 eV ==== 
     psi = 0.329*[#  16]+0.329*[#  17]+0.329*[#  18]+0.002*[#  19]+0.002*[#  20]
          +0.002*[#  21]
    |psi|^2 = 0.998
==== e(   7) =   -38.09978 eV ==== 
     psi = 0.331*[#  16]+0.331*[#  17]+0.331*[#  18]+0.001*[#  19]+0.001*[#  20]
          +0.001*[#  21]
    |psi|^2 = 0.998
==== e(   8) =   -37.39632 eV ==== 
     psi = 0.330*[#  16]+0.330*[#  17]+0.330*[#  18]+0.001*[#  19]+0.001*[#  20]
          +0.001*[#  21]
    |psi|^2 = 0.998
==== e(   9) =    -5.15457 eV ==== 
     psi = 0.397*[#  27]+0.397*[#  31]+0.040*[#  19]+0.040*[#  20]+0.040*[#  21]
          +0.034*[#   9]+0.034*[#  12]+0.013*[#   2]
    |psi|^2 = 0.999
==== e(  10) =    -4.69200 eV ==== 
     psi = 0.415*[#  27]+0.415*[#  31]+0.043*[#   6]+0.043*[#   7]+0.043*[#   8]
          +0.013*[#  22]+0.013*[#  25]+0.012*[#  15]
    |psi|^2 = 0.999
==== e(  11) =     5.40476 eV ==== 
     psi = 0.216*[#  10]+0.216*[#  11]+0.216*[#  13]+0.048*[#   2]+0.041*[#  28]
          +0.041*[#  29]+0.041*[#  30]+0.041*[#  32]+0.041*[#  33]+0.041*[#  34]
          +0.015*[#  19]+0.015*[#  20]+0.015*[#  21]+0.003*[#   9]+0.003*[#  12]
          +0.003*[#  27]+0.003*[#  31]+0.002*[#   1]
    |psi|^2 = 1.000
==== e(  12) =     6.38884 eV ==== 
     psi = 0.232*[#   9]+0.232*[#  12]+0.057*[#  28]+0.057*[#  29]+0.057*[#  30]
          +0.057*[#  32]+0.057*[#  33]+0.057*[#  34]+0.031*[#  10]+0.031*[#  11]
          +0.031*[#  13]+0.027*[#  19]+0.027*[#  20]+0.027*[#  21]+0.006*[#   2]
          +0.005*[#  27]+0.005*[#  31]+0.001*[#  16]+0.001*[#  17]+0.001*[#  18]
          
    |psi|^2 = 1.000
==== e(  13) =     6.65360 eV ==== 
     psi = 0.325*[#   9]+0.325*[#  12]+0.041*[#  28]+0.041*[#  29]+0.041*[#  30]
          +0.041*[#  32]+0.041*[#  33]+0.041*[#  34]+0.030*[#  10]+0.030*[#  11]
          +0.030*[#  13]+0.004*[#  19]+0.004*[#  20]+0.004*[#  21]
    |psi|^2 = 1.000
==== e(  14) =     7.40291 eV ==== 
     psi = 0.108*[#  28]+0.108*[#  29]+0.108*[#  30]+0.108*[#  32]+0.108*[#  33]
          +0.108*[#  34]+0.076*[#  15]+0.050*[#   6]+0.050*[#   7]+0.050*[#   8]
          +0.030*[#  23]+0.030*[#  24]+0.030*[#  26]+0.007*[#  22]+0.007*[#  25]
          +0.006*[#  27]+0.006*[#  31]+0.004*[#  14]+0.002*[#   3]+0.002*[#   4]
          +0.002*[#   5]
    |psi|^2 = 0.999
==== e(  15) =     7.82905 eV ==== 
     psi = 0.295*[#  10]+0.295*[#  11]+0.295*[#  13]+0.057*[#   9]+0.057*[#  12]
          
    |psi|^2 = 1.000
==== e(  16) =     8.68243 eV ==== 
     psi = 0.180*[#  10]+0.180*[#  11]+0.180*[#  13]+0.094*[#   9]+0.094*[#  12]
          +0.031*[#  28]+0.031*[#  29]+0.031*[#  30]+0.031*[#  32]+0.031*[#  33]
          +0.031*[#  34]+0.030*[#   2]+0.016*[#  27]+0.016*[#  31]+0.007*[#  19]
          +0.007*[#  20]+0.007*[#  21]
    |psi|^2 = 0.997
==== e(  17) =     8.70091 eV ==== 
     psi = 0.118*[#  28]+0.118*[#  29]+0.118*[#  30]+0.118*[#  32]+0.118*[#  33]
          +0.118*[#  34]+0.040*[#  23]+0.040*[#  24]+0.040*[#  26]+0.040*[#  15]
          +0.034*[#  22]+0.034*[#  25]+0.019*[#   6]+0.019*[#   7]+0.019*[#   8]
          
    |psi|^2 = 0.996
==== e(  18) =     9.74715 eV ==== 
     psi = 0.138*[#  28]+0.138*[#  29]+0.138*[#  30]+0.138*[#  32]+0.138*[#  33]
          +0.138*[#  34]+0.058*[#  22]+0.058*[#  25]+0.017*[#   6]+0.017*[#   7]
          +0.017*[#   8]+0.002*[#  23]+0.002*[#  24]+0.002*[#  26]
    |psi|^2 = 0.997
==== e(  19) =    10.02049 eV ==== 
     psi = 0.203*[#  10]+0.203*[#  11]+0.203*[#  13]+0.054*[#   2]+0.050*[#  28]
          +0.050*[#  29]+0.050*[#  30]+0.050*[#  32]+0.050*[#  33]+0.050*[#  34]
          +0.009*[#   9]+0.009*[#  12]+0.006*[#  19]+0.006*[#  20]+0.006*[#  21]
          
    |psi|^2 = 0.999
==== e(  20) =    11.40199 eV ==== 
     psi = 0.278*[#  23]+0.278*[#  24]+0.278*[#  26]+0.023*[#  28]+0.023*[#  29]
          +0.023*[#  30]+0.023*[#  32]+0.023*[#  33]+0.023*[#  34]+0.010*[#  22]
          +0.010*[#  25]+0.003*[#   6]+0.003*[#   7]+0.003*[#   8]
    |psi|^2 = 0.997
==== e(  21) =    11.46974 eV ==== 
     psi = 0.124*[#   9]+0.124*[#  12]+0.090*[#  28]+0.090*[#  29]+0.090*[#  30]
          +0.090*[#  32]+0.090*[#  33]+0.090*[#  34]+0.033*[#  10]+0.033*[#  11]
          +0.033*[#  13]+0.021*[#  27]+0.021*[#  31]+0.019*[#  19]+0.019*[#  20]
          +0.019*[#  21]+0.005*[#   2]+0.001*[#  16]+0.001*[#  17]+0.001*[#  18]
          
    |psi|^2 = 0.992
==== e(  22) =    11.94645 eV ==== 
     psi = 0.117*[#   9]+0.117*[#  12]+0.116*[#  28]+0.116*[#  29]+0.116*[#  30]
          +0.116*[#  32]+0.116*[#  33]+0.116*[#  34]+0.014*[#  19]+0.014*[#  20]
          +0.014*[#  21]+0.008*[#  10]+0.008*[#  11]+0.008*[#  13]
    |psi|^2 = 0.996
==== e(  23) =    15.36866 eV ==== 
     psi = 0.245*[#  23]+0.245*[#  24]+0.245*[#  26]+0.075*[#  22]+0.075*[#  25]
          +0.015*[#  28]+0.015*[#  29]+0.015*[#  30]+0.015*[#  32]+0.015*[#  33]
          +0.015*[#  34]+0.004*[#  15]+0.002*[#  27]+0.002*[#  31]+0.002*[#   6]
          +0.002*[#   7]+0.002*[#   8]
    |psi|^2 = 0.994
==== e(  24) =    15.52113 eV ==== 
     psi = 0.200*[#  22]+0.200*[#  25]+0.190*[#  23]+0.190*[#  24]+0.190*[#  26]
          +0.004*[#  28]+0.004*[#  29]+0.004*[#  30]+0.004*[#  32]+0.004*[#  33]
          +0.004*[#  34]+0.002*[#   6]+0.002*[#   7]+0.002*[#   8]
    |psi|^2 = 0.999
==== e(  25) =    16.62473 eV ==== 
     psi = 0.344*[#  22]+0.344*[#  25]+0.058*[#  23]+0.058*[#  24]+0.058*[#  26]
          +0.026*[#  27]+0.026*[#  31]+0.014*[#   6]+0.014*[#   7]+0.014*[#   8]
          +0.006*[#  28]+0.006*[#  29]+0.006*[#  30]+0.006*[#  32]+0.006*[#  33]
          +0.006*[#  34]
    |psi|^2 = 0.991
==== e(  26) =    17.08145 eV ==== 
     psi = 0.241*[#  22]+0.241*[#  25]+0.141*[#  23]+0.141*[#  24]+0.141*[#  26]
          +0.015*[#  28]+0.015*[#  29]+0.015*[#  30]+0.015*[#  32]+0.015*[#  33]
          +0.015*[#  34]+0.001*[#   6]+0.001*[#   7]+0.001*[#   8]
    |psi|^2 = 0.998
==== e(  27) =    21.06965 eV ==== 
     psi = 0.388*[#   2]+0.103*[#  19]+0.103*[#  20]+0.103*[#  21]+0.039*[#  27]
          +0.039*[#  31]+0.031*[#  28]+0.031*[#  29]+0.031*[#  30]+0.031*[#  32]
          +0.031*[#  33]+0.031*[#  34]+0.002*[#   9]+0.002*[#  12]
    |psi|^2 = 0.970
==== e(  28) =    21.42145 eV ==== 
     psi = 0.200*[#  15]+0.148*[#   6]+0.148*[#   7]+0.148*[#   8]+0.039*[#  27]
          +0.039*[#  31]+0.033*[#  28]+0.033*[#  29]+0.033*[#  30]+0.033*[#  32]
          +0.033*[#  33]+0.033*[#  34]+0.014*[#  22]+0.014*[#  25]+0.003*[#  23]
          +0.003*[#  24]+0.003*[#  26]
    |psi|^2 = 0.956
==== e(  29) =    23.21205 eV ==== 
     psi = 0.333*[#   2]+0.115*[#  19]+0.115*[#  20]+0.115*[#  21]+0.017*[#  28]
          +0.017*[#  29]+0.017*[#  30]+0.017*[#  32]+0.017*[#  33]+0.017*[#  34]
          +0.014*[#   1]+0.009*[#  27]+0.009*[#  31]+0.001*[#  10]+0.001*[#  11]
          +0.001*[#  13]+0.001*[#   9]+0.001*[#  12]
    |psi|^2 = 0.820
==== e(  30) =    23.83058 eV ==== 
     psi = 0.557*[#  15]+0.062*[#   6]+0.062*[#   7]+0.062*[#   8]+0.017*[#  28]
          +0.017*[#  29]+0.017*[#  30]+0.017*[#  32]+0.017*[#  33]+0.017*[#  34]
          +0.015*[#  14]+0.005*[#  23]+0.005*[#  24]+0.005*[#  26]+0.003*[#  22]
          +0.003*[#  25]+0.002*[#  27]+0.002*[#  31]
    |psi|^2 = 0.883
==== e(  31) =    25.26303 eV ==== 
     psi = 0.213*[#  19]+0.213*[#  20]+0.213*[#  21]+0.089*[#   2]+0.010*[#  28]
          +0.010*[#  29]+0.010*[#  30]+0.010*[#  32]+0.010*[#  33]+0.010*[#  34]
          +0.006*[#   1]+0.002*[#  16]+0.002*[#  17]+0.002*[#  18]
    |psi|^2 = 0.801
==== e(  32) =    25.71464 eV ==== 
     psi = 0.222*[#   6]+0.222*[#   7]+0.222*[#   8]+0.068*[#  15]+0.008*[#  23]
          +0.008*[#  24]+0.008*[#  26]+0.007*[#  28]+0.007*[#  29]+0.007*[#  30]
          +0.007*[#  32]+0.007*[#  33]+0.007*[#  34]+0.004*[#  14]+0.002*[#   3]
          +0.002*[#   4]+0.002*[#   5]
    |psi|^2 = 0.816
==== e(  33) =    29.88653 eV ==== 
     psi = 0.240*[#   6]+0.240*[#   7]+0.240*[#   8]+0.008*[#  28]+0.008*[#  29]
          +0.008*[#  30]+0.008*[#  32]+0.008*[#  33]+0.008*[#  34]+0.002*[#   3]
          +0.002*[#   4]+0.002*[#   5]
    |psi|^2 = 0.774
==== e(  34) =    30.52115 eV ==== 
     psi = 0.236*[#  19]+0.236*[#  20]+0.236*[#  21]+0.007*[#  28]+0.007*[#  29]
          +0.007*[#  30]+0.007*[#  32]+0.007*[#  33]+0.007*[#  34]+0.002*[#  16]
          +0.002*[#  17]+0.002*[#  18]
    |psi|^2 = 0.756
==== e(  35) =    32.35235 eV ==== 
     psi = 0.068*[#  19]+0.068*[#  20]+0.068*[#  21]+0.005*[#   2]+0.005*[#  27]
          +0.005*[#  31]+0.003*[#  28]+0.003*[#  29]+0.003*[#  30]+0.003*[#  32]
          +0.003*[#  33]+0.003*[#  34]
    |psi|^2 = 0.237

 k =   0.1666666667  0.1666666667 -0.1666666667
==== e(   1) =   -76.19263 eV ==== 
     psi = 0.943*[#   1]+0.009*[#   6]+0.009*[#   7]+0.009*[#   8]+0.007*[#  19]
          +0.007*[#  20]+0.007*[#  21]+0.002*[#   2]+0.001*[#  15]
    |psi|^2 = 1.000
==== e(   2) =   -72.07436 eV ==== 
     psi = 0.943*[#  14]+0.010*[#  19]+0.010*[#  20]+0.010*[#  21]+0.007*[#   6]
          +0.007*[#   7]+0.007*[#   8]+0.001*[#   2]+0.001*[#  15]
    |psi|^2 = 1.000
==== e(   3) =   -42.39065 eV ==== 
     psi = 0.330*[#   3]+0.330*[#   4]+0.330*[#   5]+0.002*[#   2]
    |psi|^2 = 0.998
==== e(   4) =   -42.36946 eV ==== 
     psi = 0.328*[#   3]+0.328*[#   4]+0.328*[#   5]+0.004*[#   6]+0.004*[#   7]
          +0.004*[#   8]
    |psi|^2 = 0.999
==== e(   5) =   -40.76970 eV ==== 
     psi = 0.328*[#   3]+0.328*[#   4]+0.328*[#   5]+0.004*[#  19]+0.004*[#  20]
          +0.004*[#  21]
    |psi|^2 = 0.998
==== e(   6) =   -38.10748 eV ==== 
     psi = 0.330*[#  16]+0.330*[#  17]+0.330*[#  18]+0.002*[#  15]
    |psi|^2 = 0.998
==== e(   7) =   -38.08440 eV ==== 
     psi = 0.329*[#  16]+0.329*[#  17]+0.329*[#  18]+0.003*[#  19]+0.003*[#  20]
          +0.003*[#  21]
    |psi|^2 = 0.999
==== e(   8) =   -37.38215 eV ==== 
     psi = 0.328*[#  16]+0.328*[#  17]+0.328*[#  18]+0.004*[#   6]+0.004*[#   7]
          +0.004*[#   8]
    |psi|^2 = 0.998
==== e(   9) =    -5.73262 eV ==== 
     psi = 0.303*[#  27]+0.303*[#  31]+0.082*[#   2]+0.077*[#  15]+0.036*[#   6]
          +0.036*[#   7]+0.036*[#   8]+0.036*[#  19]+0.036*[#  20]+0.036*[#  21]
          +0.008*[#  14]+0.008*[#   1]
    |psi|^2 = 1.000
==== e(  10) =    -4.83573 eV ==== 
     psi = 0.397*[#  27]+0.397*[#  31]+0.029*[#   6]+0.029*[#   7]+0.029*[#   8]
          +0.028*[#  19]+0.028*[#  20]+0.028*[#  21]+0.009*[#   9]+0.009*[#  12]
          +0.003*[#  22]+0.003*[#  25]+0.003*[#  15]+0.003*[#   2]
    |psi|^2 = 0.999
==== e(  11) =     5.62141 eV ==== 
     psi = 0.079*[#  28]+0.079*[#  29]+0.079*[#  30]+0.079*[#  32]+0.079*[#  33]
          +0.079*[#  34]+0.073*[#   2]+0.071*[#  10]+0.071*[#  11]+0.071*[#  13]
          +0.062*[#  15]+0.034*[#  23]+0.034*[#  24]+0.034*[#  26]+0.011*[#   6]
          +0.011*[#   7]+0.011*[#   8]+0.010*[#  19]+0.010*[#  20]+0.010*[#  21]
          +0.003*[#   1]+0.002*[#  27]+0.002*[#  31]+0.002*[#  14]
    |psi|^2 = 0.999
==== e(  12) =     6.11195 eV ==== 
     psi = 0.191*[#   9]+0.191*[#  12]+0.134*[#  10]+0.134*[#  11]+0.134*[#  13]
          +0.031*[#  28]+0.031*[#  29]+0.031*[#  30]+0.031*[#  32]+0.031*[#  33]
          +0.031*[#  34]+0.004*[#  19]+0.004*[#  20]+0.004*[#  21]+0.003*[#   6]
          +0.003*[#   7]+0.003*[#   8]+0.002*[#   2]+0.002*[#  22]+0.002*[#  25]
          +0.001*[#  27]+0.001*[#  31]
    |psi|^2 = 1.000
==== e(  13) =     6.44434 eV ==== 
     psi = 0.290*[#   9]+0.290*[#  12]+0.073*[#  10]+0.073*[#  11]+0.073*[#  13]
          +0.032*[#  28]+0.032*[#  29]+0.032*[#  30]+0.032*[#  32]+0.032*[#  33]
          +0.032*[#  34]+0.003*[#  22]+0.003*[#  25]+0.001*[#   6]+0.001*[#   7]
          +0.001*[#   8]
    |psi|^2 = 1.000
==== e(  14) =     7.35317 eV ==== 
     psi = 0.169*[#   9]+0.169*[#  12]+0.167*[#  10]+0.167*[#  11]+0.167*[#  13]
          +0.022*[#  28]+0.022*[#  29]+0.022*[#  30]+0.022*[#  32]+0.022*[#  33]
          +0.022*[#  34]+0.008*[#  15]+0.005*[#  27]+0.005*[#  31]+0.003*[#   2]
          +0.003*[#  23]+0.003*[#  24]+0.003*[#  26]
    |psi|^2 = 0.999
==== e(  15) =     7.46921 eV ==== 
     psi = 0.246*[#  10]+0.246*[#  11]+0.246*[#  13]+0.098*[#   9]+0.098*[#  12]
          +0.010*[#  28]+0.010*[#  29]+0.010*[#  30]+0.010*[#  32]+0.010*[#  33]
          +0.010*[#  34]
    |psi|^2 = 1.000
==== e(  16) =     9.15582 eV ==== 
     psi = 0.170*[#  10]+0.170*[#  11]+0.170*[#  13]+0.067*[#  23]+0.067*[#  24]
          +0.067*[#  26]+0.036*[#  28]+0.036*[#  29]+0.036*[#  30]+0.036*[#  32]
          +0.036*[#  33]+0.036*[#  34]+0.032*[#   2]+0.007*[#   9]+0.007*[#  12]
          +0.006*[#  27]+0.006*[#  31]+0.002*[#  22]+0.002*[#  25]+0.001*[#  15]
          
    |psi|^2 = 0.998
==== e(  17) =     9.71637 eV ==== 
     psi = 0.118*[#  28]+0.118*[#  29]+0.118*[#  30]+0.118*[#  32]+0.118*[#  33]
          +0.118*[#  34]+0.035*[#  15]+0.033*[#  22]+0.033*[#  25]+0.021*[#   2]
          +0.017*[#  27]+0.017*[#  31]+0.017*[#  23]+0.017*[#  24]+0.017*[#  26]
          +0.016*[#   9]+0.016*[#  12]+0.009*[#  10]+0.009*[#  11]+0.009*[#  13]
          +0.005*[#   6]+0.005*[#   7]+0.005*[#   8]+0.001*[#   1]+0.001*[#  19]
          +0.001*[#  20]+0.001*[#  21]
    |psi|^2 = 0.995
==== e(  18) =    10.29114 eV ==== 
     psi = 0.096*[#  28]+0.096*[#  29]+0.096*[#  30]+0.096*[#  32]+0.096*[#  33]
          +0.096*[#  34]+0.074*[#  10]+0.074*[#  11]+0.074*[#  13]+0.032*[#  22]
          +0.032*[#  25]+0.026*[#  15]+0.015*[#   9]+0.015*[#  12]+0.014*[#  27]
          +0.014*[#  31]+0.012*[#   2]+0.005*[#  23]+0.005*[#  24]+0.005*[#  26]
          +0.004*[#  19]+0.004*[#  20]+0.004*[#  21]+0.004*[#   6]+0.004*[#   7]
          +0.004*[#   8]+0.002*[#  14]
    |psi|^2 = 0.996
==== e(  19) =    10.37591 eV ==== 
     psi = 0.127*[#  28]+0.127*[#  29]+0.127*[#  30]+0.127*[#  32]+0.127*[#  33]
          +0.127*[#  34]+0.072*[#  22]+0.072*[#  25]+0.014*[#  10]+0.014*[#  11]
          +0.014*[#  13]+0.012*[#   9]+0.012*[#  12]+0.004*[#   6]+0.004*[#   7]
          +0.004*[#   8]+0.002*[#  23]+0.002*[#  24]+0.002*[#  26]
    |psi|^2 = 0.996
==== e(  20) =    11.66423 eV ==== 
     psi = 0.176*[#  23]+0.176*[#  24]+0.176*[#  26]+0.048*[#  28]+0.048*[#  29]
          +0.048*[#  30]+0.048*[#  32]+0.048*[#  33]+0.048*[#  34]+0.036*[#  10]
          +0.036*[#  11]+0.036*[#  13]+0.023*[#   2]+0.015*[#  15]+0.014*[#   9]
          +0.014*[#  12]+0.003*[#  22]+0.003*[#  25]
    |psi|^2 = 0.998
==== e(  21) =    11.90915 eV ==== 
     psi = 0.125*[#  28]+0.125*[#  29]+0.125*[#  30]+0.125*[#  32]+0.125*[#  33]
          +0.125*[#  34]+0.096*[#   9]+0.096*[#  12]+0.008*[#  23]+0.008*[#  24]
          +0.008*[#  26]+0.006*[#  22]+0.006*[#  25]+0.006*[#  19]+0.006*[#  20]
          +0.006*[#  21]
    |psi|^2 = 0.995
==== e(  22) =    11.91210 eV ==== 
     psi = 0.115*[#  28]+0.115*[#  29]+0.115*[#  30]+0.115*[#  32]+0.115*[#  33]
          +0.115*[#  34]+0.073*[#   9]+0.073*[#  12]+0.039*[#  23]+0.039*[#  24]
          +0.039*[#  26]+0.006*[#  19]+0.006*[#  20]+0.006*[#  21]+0.005*[#  27]
          +0.005*[#  31]+0.002*[#  10]+0.002*[#  11]+0.002*[#  13]
    |psi|^2 = 0.993
==== e(  23) =    15.36708 eV ==== 
     psi = 0.246*[#  23]+0.246*[#  24]+0.246*[#  26]+0.059*[#  22]+0.059*[#  25]
          +0.014*[#  28]+0.014*[#  29]+0.014*[#  30]+0.014*[#  32]+0.014*[#  33]
          +0.014*[#  34]+0.009*[#  27]+0.009*[#  31]+0.005*[#   6]+0.005*[#   7]
          +0.005*[#   8]+0.004*[#   2]+0.004*[#  15]+0.001*[#  19]+0.001*[#  20]
          +0.001*[#  21]+0.001*[#   9]+0.001*[#  12]
    |psi|^2 = 0.993
==== e(  24) =    15.48973 eV ==== 
     psi = 0.225*[#  23]+0.225*[#  24]+0.225*[#  26]+0.103*[#  22]+0.103*[#  25]
          +0.017*[#  28]+0.017*[#  29]+0.017*[#  30]+0.017*[#  32]+0.017*[#  33]
          +0.017*[#  34]+0.002*[#   9]+0.002*[#  12]+0.002*[#   6]+0.002*[#   7]
          +0.002*[#   8]
    |psi|^2 = 0.996
==== e(  25) =    16.40354 eV ==== 
     psi = 0.201*[#  22]+0.201*[#  25]+0.083*[#  27]+0.083*[#  31]+0.078*[#   2]
          +0.055*[#  15]+0.025*[#   6]+0.025*[#   7]+0.025*[#   8]+0.020*[#  28]
          +0.020*[#  29]+0.020*[#  30]+0.020*[#  32]+0.020*[#  33]+0.020*[#  34]
          +0.018*[#  19]+0.018*[#  20]+0.018*[#  21]+0.010*[#  23]+0.010*[#  24]
          +0.010*[#  26]+0.007*[#  14]+0.003*[#   1]
    |psi|^2 = 0.992
==== e(  26) =    16.58786 eV ==== 
     psi = 0.152*[#  22]+0.152*[#  25]+0.075*[#   2]+0.072*[#  27]+0.072*[#  31]
          +0.060*[#  15]+0.055*[#  23]+0.055*[#  24]+0.055*[#  26]+0.023*[#  28]
          +0.023*[#  29]+0.023*[#  30]+0.023*[#  32]+0.023*[#  33]+0.023*[#  34]
          +0.018*[#  19]+0.018*[#  20]+0.018*[#  21]+0.015*[#   6]+0.015*[#   7]
          +0.015*[#   8]+0.004*[#   1]+0.003*[#  14]
    |psi|^2 = 0.993
==== e(  27) =    16.72225 eV ==== 
     psi = 0.314*[#  22]+0.314*[#  25]+0.094*[#  23]+0.094*[#  24]+0.094*[#  26]
          +0.013*[#  28]+0.013*[#  29]+0.013*[#  30]+0.013*[#  32]+0.013*[#  33]
          +0.013*[#  34]+0.001*[#   9]+0.001*[#  12]
    |psi|^2 = 0.995
==== e(  28) =    20.77859 eV ==== 
     psi = 0.099*[#   6]+0.099*[#   7]+0.099*[#   8]+0.096*[#  19]+0.096*[#  20]
          +0.096*[#  21]+0.063*[#  27]+0.063*[#  31]+0.031*[#  15]+0.021*[#  28]
          +0.021*[#  29]+0.021*[#  30]+0.021*[#  32]+0.021*[#  33]+0.021*[#  34]
          +0.020*[#   2]+0.010*[#  22]+0.010*[#  25]+0.004*[#  23]+0.004*[#  24]
          +0.004*[#  26]+0.002*[#   9]+0.002*[#  12]
    |psi|^2 = 0.928
==== e(  29) =    23.29137 eV ==== 
     psi = 0.315*[#  15]+0.303*[#   2]+0.030*[#  28]+0.030*[#  29]+0.030*[#  30]
          +0.030*[#  32]+0.030*[#  33]+0.030*[#  34]+0.023*[#  19]+0.023*[#  20]
          +0.023*[#  21]+0.014*[#   6]+0.014*[#   7]+0.014*[#   8]+0.007*[#   1]
          +0.004*[#  14]+0.001*[#  23]+0.001*[#  24]+0.001*[#  26]+0.001*[#  27]
          +0.001*[#  31]
    |psi|^2 = 0.928
==== e(  30) =    26.71677 eV ==== 
     psi = 0.148*[#   6]+0.148*[#   7]+0.148*[#   8]+0.108*[#   2]+0.050*[#  19]
          +0.050*[#  20]+0.050*[#  21]+0.007*[#   1]+0.003*[#  28]+0.003*[#  29]
          +0.003*[#  30]+0.003*[#  32]+0.003*[#  33]+0.003*[#  34]+0.003*[#  15]
          +0.002*[#  23]+0.002*[#  24]+0.002*[#  26]+0.002*[#   3]+0.002*[#   4]
          +0.002*[#   5]
    |psi|^2 = 0.748
==== e(  31) =    26.90107 eV ==== 
     psi = 0.132*[#  15]+0.078*[#  19]+0.078*[#  20]+0.078*[#  21]+0.017*[#   2]
          +0.011*[#  14]+0.004*[#   6]+0.004*[#   7]+0.004*[#   8]+0.003*[#   1]
          +0.003*[#  23]+0.003*[#  24]+0.003*[#  26]+0.002*[#  28]+0.002*[#  29]
          +0.002*[#  30]+0.002*[#  32]+0.002*[#  33]+0.002*[#  34]+0.001*[#  27]
          +0.001*[#  31]
    |psi|^2 = 0.431
==== e(  32) =    29.69146 eV ==== 
     psi = 0.147*[#   6]+0.147*[#   7]+0.147*[#   8]+0.083*[#  19]+0.083*[#  20]
          +0.083*[#  21]+0.004*[#  28]+0.004*[#  29]+0.004*[#  30]+0.004*[#  32]
          +0.004*[#  33]+0.004*[#  34]+0.002*[#   3]+0.002*[#   4]+0.002*[#   5]
          
    |psi|^2 = 0.723
==== e(  33) =    30.90094 eV ==== 
     psi = 0.065*[#  19]+0.065*[#  20]+0.065*[#  21]+0.023*[#   6]+0.023*[#   7]
          +0.023*[#   8]+0.002*[#  23]+0.002*[#  24]+0.002*[#  26]+0.001*[#  16]
          +0.001*[#  17]+0.001*[#  18]
    |psi|^2 = 0.280
==== e(  34) =    31.07594 eV ==== 
     psi = 0.042*[#  19]+0.042*[#  20]+0.042*[#  21]+0.041*[#   6]+0.041*[#   7]
          +0.041*[#   8]+0.001*[#  23]+0.001*[#  24]+0.001*[#  26]+0.001*[#   3]
          +0.001*[#   4]+0.001*[#   5]+0.001*[#  16]+0.001*[#  17]+0.001*[#  18]
          
    |psi|^2 = 0.267
==== e(  35) =    33.40286 eV ==== 
     psi = 0.050*[#  15]+0.031*[#   2]+0.029*[#   6]+0.029*[#   7]+0.029*[#   8]
          +0.005*[#  14]+0.005*[#  19]+0.005*[#  20]+0.005*[#  21]+0.004*[#   1]
          +0.002*[#  27]+0.002*[#  31]
    |psi|^2 = 0.202

 k =   0.4166666667  0.0833333333 -0.2500000000
==== e(   1) =   -76.19270 eV ==== 
     psi = 0.944*[#   1]+0.009*[#   6]+0.009*[#   7]+0.009*[#   8]+0.007*[#   2]
          +0.006*[#  19]+0.006*[#  20]+0.006*[#  21]
    |psi|^2 = 1.000
==== e(   2) =   -72.07495 eV ==== 
     psi = 0.944*[#  14]+0.009*[#  19]+0.009*[#  20]+0.009*[#  21]+0.006*[#  15]
          +0.006*[#   6]+0.006*[#   7]+0.006*[#   8]
    |psi|^2 = 1.000
==== e(   3) =   -42.43204 eV ==== 
     psi = 0.330*[#   3]+0.330*[#   4]+0.330*[#   5]+0.001*[#   2]+0.001*[#  19]
          +0.001*[#  20]+0.001*[#  21]
    |psi|^2 = 0.998
==== e(   4) =   -42.39760 eV ==== 
     psi = 0.329*[#   3]+0.329*[#   4]+0.329*[#   5]+0.003*[#   6]+0.003*[#   7]
          +0.003*[#   8]
    |psi|^2 = 0.998
==== e(   5) =   -40.77061 eV ==== 
     psi = 0.329*[#   3]+0.329*[#   4]+0.329*[#   5]+0.002*[#  19]+0.002*[#  20]
          +0.002*[#  21]
    |psi|^2 = 0.998
==== e(   6) =   -38.15107 eV ==== 
     psi = 0.329*[#  16]+0.329*[#  17]+0.329*[#  18]+0.001*[#   6]+0.001*[#   7]
          +0.001*[#   8]+0.001*[#  15]
    |psi|^2 = 0.998
==== e(   7) =   -38.11122 eV ==== 
     psi = 0.329*[#  16]+0.329*[#  17]+0.329*[#  18]+0.003*[#  19]+0.003*[#  20]
          +0.003*[#  21]
    |psi|^2 = 0.998
==== e(   8) =   -37.38455 eV ==== 
     psi = 0.329*[#  16]+0.329*[#  17]+0.329*[#  18]+0.002*[#   6]+0.002*[#   7]
          +0.002*[#   8]
    |psi|^2 = 0.998
==== e(   9) =    -5.35168 eV ==== 
     psi = 0.330*[#  27]+0.330*[#  31]+0.041*[#   6]+0.041*[#   7]+0.041*[#   8]
          +0.041*[#  19]+0.041*[#  20]+0.041*[#  21]+0.034*[#  15]+0.033*[#   2]
          +0.006*[#  14]+0.005*[#   1]+0.004*[#   9]+0.004*[#  12]
    |psi|^2 = 1.000
==== e(  10) =    -4.88008 eV ==== 
     psi = 0.410*[#  27]+0.410*[#  31]+0.020*[#   6]+0.020*[#   7]+0.020*[#   8]
          +0.020*[#  19]+0.020*[#  20]+0.020*[#  21]+0.017*[#   9]+0.017*[#  12]
          +0.007*[#  22]+0.007*[#  25]+0.006*[#   2]+0.001*[#  15]
    |psi|^2 = 0.999
==== e(  11) =     5.88451 eV ==== 
     psi = 0.139*[#  10]+0.139*[#  11]+0.139*[#  13]+0.120*[#   9]+0.120*[#  12]
          +0.043*[#  28]+0.043*[#  29]+0.043*[#  30]+0.043*[#  32]+0.043*[#  33]
          +0.043*[#  34]+0.025*[#  15]+0.009*[#  19]+0.009*[#  20]+0.009*[#  21]
          +0.008*[#   6]+0.008*[#   7]+0.008*[#   8]+0.002*[#  14]+0.002*[#   2]
          
    |psi|^2 = 1.000
==== e(  12) =     6.44628 eV ==== 
     psi = 0.144*[#   9]+0.144*[#  12]+0.110*[#  10]+0.110*[#  11]+0.110*[#  13]
          +0.046*[#  28]+0.046*[#  29]+0.046*[#  30]+0.046*[#  32]+0.046*[#  33]
          +0.046*[#  34]+0.019*[#   2]+0.014*[#  15]+0.012*[#  23]+0.012*[#  24]
          +0.012*[#  26]+0.005*[#  19]+0.005*[#  20]+0.005*[#  21]+0.004*[#   6]
          +0.004*[#   7]+0.004*[#   8]+0.002*[#  27]+0.002*[#  31]+0.002*[#  22]
          +0.002*[#  25]
    |psi|^2 = 0.999
==== e(  13) =     6.57242 eV ==== 
     psi = 0.158*[#   9]+0.158*[#  12]+0.065*[#  10]+0.065*[#  11]+0.065*[#  13]
          +0.055*[#  28]+0.055*[#  29]+0.055*[#  30]+0.055*[#  32]+0.055*[#  33]
          +0.055*[#  34]+0.037*[#   2]+0.016*[#  23]+0.016*[#  24]+0.016*[#  26]
          +0.012*[#   6]+0.012*[#   7]+0.012*[#   8]+0.005*[#  27]+0.005*[#  31]
          +0.005*[#  19]+0.005*[#  20]+0.005*[#  21]+0.003*[#  15]+0.002*[#  22]
          +0.002*[#  25]+0.002*[#   1]
    |psi|^2 = 0.999
==== e(  14) =     7.06126 eV ==== 
     psi = 0.155*[#   9]+0.155*[#  12]+0.146*[#  10]+0.146*[#  11]+0.146*[#  13]
          +0.032*[#  28]+0.032*[#  29]+0.032*[#  30]+0.032*[#  32]+0.032*[#  33]
          +0.032*[#  34]+0.007*[#  22]+0.007*[#  25]+0.007*[#  27]+0.007*[#  31]
          +0.005*[#  19]+0.005*[#  20]+0.005*[#  21]+0.003*[#   2]+0.003*[#  15]
          +0.002*[#  23]+0.002*[#  24]+0.002*[#  26]+0.001*[#   6]+0.001*[#   7]
          +0.001*[#   8]
    |psi|^2 = 0.999
==== e(  15) =     7.40703 eV ==== 
     psi = 0.141*[#  10]+0.141*[#  11]+0.141*[#  13]+0.115*[#   9]+0.115*[#  12]
          +0.044*[#  28]+0.044*[#  29]+0.044*[#  30]+0.044*[#  32]+0.044*[#  33]
          +0.044*[#  34]+0.015*[#  15]+0.008*[#  27]+0.008*[#  31]+0.006*[#   6]
          +0.006*[#   7]+0.006*[#   8]+0.005*[#  19]+0.005*[#  20]+0.005*[#  21]
          +0.004*[#  23]+0.004*[#  24]+0.004*[#  26]+0.004*[#  22]+0.004*[#  25]
          
    |psi|^2 = 0.999
==== e(  16) =     8.60276 eV ==== 
     psi = 0.144*[#  10]+0.144*[#  11]+0.144*[#  13]+0.059*[#  28]+0.059*[#  29]
          +0.059*[#  30]+0.059*[#  32]+0.059*[#  33]+0.059*[#  34]+0.057*[#   2]
          +0.017*[#  23]+0.017*[#  24]+0.017*[#  26]+0.012*[#  27]+0.012*[#  31]
          +0.012*[#  22]+0.012*[#  25]+0.011*[#   9]+0.011*[#  12]+0.008*[#  19]
          +0.008*[#  20]+0.008*[#  21]+0.002*[#  15]+0.002*[#   6]+0.002*[#   7]
          +0.002*[#   8]+0.001*[#   1]
    |psi|^2 = 0.998
==== e(  17) =     9.22898 eV ==== 
     psi = 0.112*[#  28]+0.112*[#  29]+0.112*[#  30]+0.112*[#  32]+0.112*[#  33]
          +0.112*[#  34]+0.036*[#  23]+0.036*[#  24]+0.036*[#  26]+0.029*[#  22]
          +0.029*[#  25]+0.022*[#  10]+0.022*[#  11]+0.022*[#  13]+0.017*[#   6]
          +0.017*[#   7]+0.017*[#   8]+0.010*[#  19]+0.010*[#  20]+0.010*[#  21]
          +0.003*[#   9]+0.003*[#  12]+0.002*[#  15]+0.002*[#  27]+0.002*[#  31]
          
    |psi|^2 = 0.997
==== e(  18) =    10.06040 eV ==== 
     psi = 0.151*[#  10]+0.151*[#  11]+0.151*[#  13]+0.054*[#  28]+0.054*[#  29]
          +0.054*[#  30]+0.054*[#  32]+0.054*[#  33]+0.054*[#  34]+0.033*[#  15]
          +0.027*[#  23]+0.027*[#  24]+0.027*[#  26]+0.020*[#   9]+0.020*[#  12]
          +0.012*[#  27]+0.012*[#  31]+0.007*[#  19]+0.007*[#  20]+0.007*[#  21]
          +0.006*[#   2]+0.002*[#   6]+0.002*[#   7]+0.002*[#   8]+0.002*[#  14]
          +0.002*[#  22]+0.002*[#  25]
    |psi|^2 = 0.997
==== e(  19) =    10.48726 eV ==== 
     psi = 0.112*[#  28]+0.112*[#  29]+0.112*[#  30]+0.112*[#  32]+0.112*[#  33]
          +0.112*[#  34]+0.042*[#  10]+0.042*[#  11]+0.042*[#  13]+0.033*[#  22]
          +0.033*[#  25]+0.029*[#   9]+0.029*[#  12]+0.012*[#  23]+0.012*[#  24]
          +0.012*[#  26]+0.010*[#  15]+0.006*[#   6]+0.006*[#   7]+0.006*[#   8]
          +0.003*[#  19]+0.003*[#  20]+0.003*[#  21]+0.001*[#   2]
    |psi|^2 = 0.997
==== e(  20) =    11.27209 eV ==== 
     psi = 0.106*[#   9]+0.106*[#  12]+0.104*[#  28]+0.104*[#  29]+0.104*[#  30]
          +0.104*[#  32]+0.104*[#  33]+0.104*[#  34]+0.024*[#  15]+0.020*[#  22]
          +0.020*[#  25]+0.010*[#  23]+0.010*[#  24]+0.010*[#  26]+0.009*[#  27]
          +0.009*[#  31]+0.007*[#  10]+0.007*[#  11]+0.007*[#  13]+0.004*[#   6]
          +0.004*[#   7]+0.004*[#   8]+0.004*[#  19]+0.004*[#  20]+0.004*[#  21]
          +0.003*[#   2]
    |psi|^2 = 0.995
==== e(  21) =    11.53673 eV ==== 
     psi = 0.126*[#  23]+0.126*[#  24]+0.126*[#  26]+0.068*[#  28]+0.068*[#  29]
          +0.068*[#  30]+0.068*[#  32]+0.068*[#  33]+0.068*[#  34]+0.043*[#   9]
          +0.043*[#  12]+0.026*[#  10]+0.026*[#  11]+0.026*[#  13]+0.008*[#  22]
          +0.008*[#  25]+0.004*[#   2]+0.004*[#  27]+0.004*[#  31]+0.004*[#   6]
          +0.004*[#   7]+0.004*[#   8]+0.003*[#  15]+0.002*[#  19]+0.002*[#  20]
          +0.002*[#  21]
    |psi|^2 = 0.996
==== e(  22) =    11.92094 eV ==== 
     psi = 0.091*[#  23]+0.091*[#  24]+0.091*[#  26]+0.086*[#  28]+0.086*[#  29]
          +0.086*[#  30]+0.086*[#  32]+0.086*[#  33]+0.086*[#  34]+0.066*[#   9]
          +0.066*[#  12]+0.015*[#  22]+0.015*[#  25]+0.006*[#  27]+0.006*[#  31]
          +0.005*[#   2]+0.004*[#  19]+0.004*[#  20]+0.004*[#  21]+0.002*[#  10]
          +0.002*[#  11]+0.002*[#  13]+0.002*[#   6]+0.002*[#   7]+0.002*[#   8]
          
    |psi|^2 = 0.995
==== e(  23) =    15.30014 eV ==== 
     psi = 0.215*[#  23]+0.215*[#  24]+0.215*[#  26]+0.112*[#  22]+0.112*[#  25]
          +0.014*[#  28]+0.014*[#  29]+0.014*[#  30]+0.014*[#  32]+0.014*[#  33]
          +0.014*[#  34]+0.011*[#   2]+0.007*[#  27]+0.007*[#  31]+0.003*[#   6]
          +0.003*[#   7]+0.003*[#   8]+0.001*[#  19]+0.001*[#  20]+0.001*[#  21]
          
    |psi|^2 = 0.994
==== e(  24) =    15.47361 eV ==== 
     psi = 0.207*[#  23]+0.207*[#  24]+0.207*[#  26]+0.146*[#  22]+0.146*[#  25]
          +0.012*[#  28]+0.012*[#  29]+0.012*[#  30]+0.012*[#  32]+0.012*[#  33]
          +0.012*[#  34]+0.005*[#   2]+0.002*[#   9]+0.002*[#  12]
    |psi|^2 = 0.997
==== e(  25) =    16.55049 eV ==== 
     psi = 0.252*[#  22]+0.252*[#  25]+0.108*[#  23]+0.108*[#  24]+0.108*[#  26]
          +0.028*[#   2]+0.022*[#  27]+0.022*[#  31]+0.009*[#  28]+0.009*[#  29]
          +0.009*[#  30]+0.009*[#  32]+0.009*[#  33]+0.009*[#  34]+0.006*[#   6]
          +0.006*[#   7]+0.006*[#   8]+0.005*[#  19]+0.005*[#  20]+0.005*[#  21]
          +0.002*[#  15]
    |psi|^2 = 0.994
==== e(  26) =    16.77900 eV ==== 
     psi = 0.300*[#  22]+0.300*[#  25]+0.096*[#  23]+0.096*[#  24]+0.096*[#  26]
          +0.012*[#  28]+0.012*[#  29]+0.012*[#  30]+0.012*[#  32]+0.012*[#  33]
          +0.012*[#  34]+0.006*[#  27]+0.006*[#  31]+0.006*[#   2]+0.003*[#   6]
          +0.003*[#   7]+0.003*[#   8]+0.001*[#   9]+0.001*[#  12]+0.001*[#  19]
          +0.001*[#  20]+0.001*[#  21]
    |psi|^2 = 0.995
==== e(  27) =    18.58160 eV ==== 
     psi = 0.092*[#  27]+0.092*[#  31]+0.082*[#   2]+0.063*[#  15]+0.047*[#  28]
          +0.047*[#  29]+0.047*[#  30]+0.047*[#  32]+0.047*[#  33]+0.047*[#  34]
          +0.047*[#   6]+0.047*[#   7]+0.047*[#   8]+0.042*[#  19]+0.042*[#  20]
          +0.042*[#  21]+0.040*[#  22]+0.040*[#  25]+0.007*[#  14]+0.005*[#   1]
          +0.002*[#  23]+0.002*[#  24]+0.002*[#  26]+0.002*[#   9]+0.002*[#  12]
          
    |psi|^2 = 0.989
==== e(  28) =    21.89320 eV ==== 
     psi = 0.182*[#  15]+0.159*[#   2]+0.058*[#  19]+0.058*[#  20]+0.058*[#  21]
          +0.053*[#   6]+0.053*[#   7]+0.053*[#   8]+0.034*[#  28]+0.034*[#  29]
          +0.034*[#  30]+0.034*[#  32]+0.034*[#  33]+0.034*[#  34]+0.028*[#  27]
          +0.028*[#  31]+0.006*[#  22]+0.006*[#  25]+0.002*[#  23]+0.002*[#  24]
          +0.002*[#  26]+0.001*[#   9]+0.001*[#  12]
    |psi|^2 = 0.962
==== e(  29) =    23.68047 eV ==== 
     psi = 0.177*[#   2]+0.130*[#  15]+0.076*[#  19]+0.076*[#  20]+0.076*[#  21]
          +0.066*[#   6]+0.066*[#   7]+0.066*[#   8]+0.015*[#  28]+0.015*[#  29]
          +0.015*[#  30]+0.015*[#  32]+0.015*[#  33]+0.015*[#  34]+0.008*[#   1]
          +0.006*[#  27]+0.006*[#  31]+0.003*[#  14]+0.002*[#  23]+0.002*[#  24]
          +0.002*[#  26]+0.001*[#  22]+0.001*[#  25]
    |psi|^2 = 0.863
==== e(  30) =    24.79568 eV ==== 
     psi = 0.114*[#   6]+0.114*[#   7]+0.114*[#   8]+0.095*[#   2]+0.089*[#  19]
          +0.089*[#  20]+0.089*[#  21]+0.054*[#  15]+0.011*[#  28]+0.011*[#  29]
          +0.011*[#  30]+0.011*[#  32]+0.011*[#  33]+0.011*[#  34]+0.005*[#   1]
          +0.002*[#  14]+0.002*[#  23]+0.002*[#  24]+0.002*[#  26]+0.002*[#  27]
          +0.002*[#  31]
    |psi|^2 = 0.850
==== e(  31) =    25.50127 eV ==== 
     psi = 0.086*[#   6]+0.086*[#   7]+0.086*[#   8]+0.072*[#  15]+0.058*[#  19]
          +0.058*[#  20]+0.058*[#  21]+0.026*[#   2]+0.007*[#  23]+0.007*[#  24]
          +0.007*[#  26]+0.005*[#  28]+0.005*[#  29]+0.005*[#  30]+0.005*[#  32]
          +0.005*[#  33]+0.005*[#  34]+0.005*[#  14]+0.002*[#   1]+0.001*[#   3]
          +0.001*[#   4]+0.001*[#   5]
    |psi|^2 = 0.599
==== e(  32) =    28.31205 eV ==== 
     psi = 0.226*[#  15]+0.158*[#   2]+0.052*[#  19]+0.052*[#  20]+0.052*[#  21]
          +0.045*[#   6]+0.045*[#   7]+0.045*[#   8]+0.017*[#  14]+0.014*[#   1]
          +0.003*[#  27]+0.003*[#  31]+0.003*[#  28]+0.003*[#  29]+0.003*[#  30]
          +0.003*[#  32]+0.003*[#  33]+0.003*[#  34]
    |psi|^2 = 0.732
==== e(  33) =    29.59632 eV ==== 
     psi = 0.139*[#  19]+0.139*[#  20]+0.139*[#  21]+0.134*[#   6]+0.134*[#   7]
          +0.134*[#   8]+0.011*[#  27]+0.011*[#  31]+0.004*[#  15]+0.004*[#  28]
          +0.004*[#  29]+0.004*[#  30]+0.004*[#  32]+0.004*[#  33]+0.004*[#  34]
          +0.002*[#   3]+0.002*[#   4]+0.002*[#   5]+0.002*[#  16]+0.002*[#  17]
          +0.002*[#  18]+0.001*[#   2]
    |psi|^2 = 0.881
==== e(  34) =    31.14206 eV ==== 
     psi = 0.077*[#   6]+0.077*[#   7]+0.077*[#   8]+0.077*[#  19]+0.077*[#  20]
          +0.077*[#  21]+0.004*[#  15]+0.003*[#   2]+0.001*[#   3]+0.001*[#   4]
          +0.001*[#   5]+0.001*[#  28]+0.001*[#  29]+0.001*[#  30]+0.001*[#  32]
          +0.001*[#  33]+0.001*[#  34]+0.001*[#  16]+0.001*[#  17]+0.001*[#  18]
          
    |psi|^2 = 0.488
==== e(  35) =    32.57007 eV ==== 
     psi = 0.057*[#  19]+0.057*[#  20]+0.057*[#  21]+0.041*[#   6]+0.041*[#   7]
          +0.041*[#   8]+0.003*[#  15]+0.002*[#   2]
    |psi|^2 = 0.312

 k =  -0.8333333333  0.5000000000  0.1666666667
==== e(   1) =   -76.19209 eV ==== 
     psi = 0.970*[#   1]+0.009*[#   2]+0.003*[#  19]+0.003*[#  20]+0.003*[#  21]
          +0.002*[#   6]+0.002*[#   7]+0.002*[#   8]
    |psi|^2 = 1.000
==== e(   2) =   -72.07367 eV ==== 
     psi = 0.971*[#  14]+0.008*[#  15]+0.003*[#   6]+0.003*[#   7]+0.003*[#   8]
          +0.002*[#  19]+0.002*[#  20]+0.002*[#  21]
    |psi|^2 = 1.000
==== e(   3) =   -42.45776 eV ==== 
     psi = 0.330*[#   3]+0.330*[#   4]+0.330*[#   5]
    |psi|^2 = 0.998
==== e(   4) =   -42.41811 eV ==== 
     psi = 0.330*[#   3]+0.330*[#   4]+0.330*[#   5]+0.002*[#   6]+0.002*[#   7]
          +0.002*[#   8]
    |psi|^2 = 0.998
==== e(   5) =   -40.76812 eV ==== 
     psi = 0.330*[#   3]+0.330*[#   4]+0.330*[#   5]+0.001*[#   6]+0.001*[#   7]
          +0.001*[#   8]
    |psi|^2 = 0.998
==== e(   6) =   -38.17711 eV ==== 
     psi = 0.329*[#  16]+0.329*[#  17]+0.329*[#  18]
    |psi|^2 = 0.998
==== e(   7) =   -38.13110 eV ==== 
     psi = 0.330*[#  16]+0.330*[#  17]+0.330*[#  18]+0.001*[#  19]+0.001*[#  20]
          +0.001*[#  21]
    |psi|^2 = 0.998
==== e(   8) =   -37.38498 eV ==== 
     psi = 0.330*[#  16]+0.330*[#  17]+0.330*[#  18]
    |psi|^2 = 0.998
==== e(   9) =    -5.08857 eV ==== 
     psi = 0.392*[#  27]+0.392*[#  31]+0.034*[#  19]+0.034*[#  20]+0.034*[#  21]
          +0.026*[#   9]+0.026*[#  12]+0.013*[#   6]+0.013*[#   7]+0.013*[#   8]
          +0.008*[#   2]+0.007*[#  15]+0.002*[#  22]+0.002*[#  25]
    |psi|^2 = 0.999
==== e(  10) =    -4.76246 eV ==== 
     psi = 0.415*[#  27]+0.415*[#  31]+0.032*[#   6]+0.032*[#   7]+0.032*[#   8]
          +0.011*[#  22]+0.011*[#  25]+0.009*[#  19]+0.009*[#  20]+0.009*[#  21]
          +0.008*[#   9]+0.008*[#  12]+0.003*[#   2]+0.003*[#  15]
    |psi|^2 = 0.999
==== e(  11) =     5.74615 eV ==== 
     psi = 0.217*[#  10]+0.217*[#  11]+0.217*[#  13]+0.039*[#  28]+0.039*[#  29]
          +0.039*[#  30]+0.039*[#  32]+0.039*[#  33]+0.039*[#  34]+0.019*[#   2]
          +0.015*[#   9]+0.015*[#  12]+0.012*[#  15]+0.008*[#  19]+0.008*[#  20]
          +0.008*[#  21]+0.007*[#   6]+0.007*[#   7]+0.007*[#   8]+0.001*[#  23]
          +0.001*[#  24]+0.001*[#  26]
    |psi|^2 = 1.000
==== e(  12) =     6.15509 eV ==== 
     psi = 0.164*[#   9]+0.164*[#  12]+0.063*[#  10]+0.063*[#  11]+0.063*[#  13]
          +0.059*[#  28]+0.059*[#  29]+0.059*[#  30]+0.059*[#  32]+0.059*[#  33]
          +0.059*[#  34]+0.026*[#  15]+0.014*[#   2]+0.011*[#  19]+0.011*[#  20]
          +0.011*[#  21]+0.011*[#   6]+0.011*[#   7]+0.011*[#   8]+0.005*[#  23]
          +0.005*[#  24]+0.005*[#  26]+0.002*[#  14]+0.001*[#   1]
    |psi|^2 = 1.000
==== e(  13) =     6.61364 eV ==== 
     psi = 0.255*[#   9]+0.255*[#  12]+0.052*[#  28]+0.052*[#  29]+0.052*[#  30]
          +0.052*[#  32]+0.052*[#  33]+0.052*[#  34]+0.030*[#  10]+0.030*[#  11]
          +0.030*[#  13]+0.015*[#  19]+0.015*[#  20]+0.015*[#  21]+0.006*[#  27]
          +0.006*[#  31]+0.005*[#  23]+0.005*[#  24]+0.005*[#  26]+0.002*[#   2]
          +0.002*[#   6]+0.002*[#   7]+0.002*[#   8]+0.001*[#  15]
    |psi|^2 = 1.000
==== e(  14) =     7.11510 eV ==== 
     psi = 0.161*[#   9]+0.161*[#  12]+0.127*[#  10]+0.127*[#  11]+0.127*[#  13]
          +0.035*[#  28]+0.035*[#  29]+0.035*[#  30]+0.035*[#  32]+0.035*[#  33]
          +0.035*[#  34]+0.009*[#  22]+0.009*[#  25]+0.009*[#   2]+0.008*[#   6]
          +0.008*[#   7]+0.008*[#   8]+0.007*[#  23]+0.007*[#  24]+0.007*[#  26]
          +0.006*[#  27]+0.006*[#  31]
    |psi|^2 = 0.999
==== e(  15) =     8.03564 eV ==== 
     psi = 0.118*[#  10]+0.118*[#  11]+0.118*[#  13]+0.067*[#  28]+0.067*[#  29]
          +0.067*[#  30]+0.067*[#  32]+0.067*[#  33]+0.067*[#  34]+0.053*[#   9]
          +0.053*[#  12]+0.041*[#   2]+0.011*[#  22]+0.011*[#  25]+0.010*[#  19]
          +0.010*[#  20]+0.010*[#  21]+0.007*[#  27]+0.007*[#  31]+0.005*[#   6]
          +0.005*[#   7]+0.005*[#   8]+0.005*[#  23]+0.005*[#  24]+0.005*[#  26]
          +0.001*[#  15]
    |psi|^2 = 0.998
==== e(  16) =     8.45146 eV ==== 
     psi = 0.091*[#  28]+0.091*[#  29]+0.091*[#  30]+0.091*[#  32]+0.091*[#  33]
          +0.091*[#  34]+0.065*[#  10]+0.065*[#  11]+0.065*[#  13]+0.036*[#  15]
          +0.024*[#   6]+0.024*[#   7]+0.024*[#   8]+0.021*[#   9]+0.021*[#  12]
          +0.016*[#  23]+0.016*[#  24]+0.016*[#  26]+0.010*[#  22]+0.010*[#  25]
          +0.007*[#  27]+0.007*[#  31]+0.005*[#  19]+0.005*[#  20]+0.005*[#  21]
          +0.003*[#   2]+0.001*[#  14]
    |psi|^2 = 0.998
==== e(  17) =     8.80827 eV ==== 
     psi = 0.099*[#  10]+0.099*[#  11]+0.099*[#  13]+0.080*[#  28]+0.080*[#  29]
          +0.080*[#  30]+0.080*[#  32]+0.080*[#  33]+0.080*[#  34]+0.024*[#  23]
          +0.024*[#  24]+0.024*[#  26]+0.016*[#  22]+0.016*[#  25]+0.016*[#   6]
          +0.016*[#   7]+0.016*[#   8]+0.015*[#   2]+0.009*[#   9]+0.009*[#  12]
          +0.008*[#  19]+0.008*[#  20]+0.008*[#  21]+0.007*[#  15]
    |psi|^2 = 0.998
==== e(  18) =    10.05807 eV ==== 
     psi = 0.181*[#  10]+0.181*[#  11]+0.181*[#  13]+0.057*[#  28]+0.057*[#  29]
          +0.057*[#  30]+0.057*[#  32]+0.057*[#  33]+0.057*[#  34]+0.017*[#   2]
          +0.016*[#  22]+0.016*[#  25]+0.011*[#   9]+0.011*[#  12]+0.009*[#  23]
          +0.009*[#  24]+0.009*[#  26]+0.003*[#   6]+0.003*[#   7]+0.003*[#   8]
          +0.003*[#  19]+0.003*[#  20]+0.003*[#  21]
    |psi|^2 = 0.998
==== e(  19) =    10.20361 eV ==== 
     psi = 0.115*[#  28]+0.115*[#  29]+0.115*[#  30]+0.115*[#  32]+0.115*[#  33]
          +0.115*[#  34]+0.067*[#  10]+0.067*[#  11]+0.067*[#  13]+0.011*[#   6]
          +0.011*[#   7]+0.011*[#   8]+0.011*[#   2]+0.010*[#  19]+0.010*[#  20]
          +0.010*[#  21]+0.005*[#  23]+0.005*[#  24]+0.005*[#  26]+0.004*[#  15]
          +0.003*[#   9]+0.003*[#  12]+0.001*[#  22]+0.001*[#  25]
    |psi|^2 = 0.998
==== e(  20) =    11.09630 eV ==== 
     psi = 0.118*[#  23]+0.118*[#  24]+0.118*[#  26]+0.095*[#   9]+0.095*[#  12]
          +0.054*[#  28]+0.054*[#  29]+0.054*[#  30]+0.054*[#  32]+0.054*[#  33]
          +0.054*[#  34]+0.020*[#  22]+0.020*[#  25]+0.015*[#  27]+0.015*[#  31]
          +0.009*[#  19]+0.009*[#  20]+0.009*[#  21]+0.008*[#  10]+0.008*[#  11]
          +0.008*[#  13]+0.004*[#  15]+0.001*[#   6]+0.001*[#   7]+0.001*[#   8]
          
    |psi|^2 = 0.995
==== e(  21) =    11.29547 eV ==== 
     psi = 0.108*[#   9]+0.108*[#  12]+0.085*[#  28]+0.085*[#  29]+0.085*[#  30]
          +0.085*[#  32]+0.085*[#  33]+0.085*[#  34]+0.038*[#  23]+0.038*[#  24]
          +0.038*[#  26]+0.026*[#  15]+0.026*[#  22]+0.026*[#  25]+0.016*[#  10]
          +0.016*[#  11]+0.016*[#  13]+0.006*[#  27]+0.006*[#  31]+0.005*[#  19]
          +0.005*[#  20]+0.005*[#  21]+0.001*[#   6]+0.001*[#   7]+0.001*[#   8]
          
    |psi|^2 = 0.996
==== e(  22) =    11.83531 eV ==== 
     psi = 0.121*[#  23]+0.121*[#  24]+0.121*[#  26]+0.072*[#  28]+0.072*[#  29]
          +0.072*[#  30]+0.072*[#  32]+0.072*[#  33]+0.072*[#  34]+0.065*[#   9]
          +0.065*[#  12]+0.008*[#  15]+0.006*[#  19]+0.006*[#  20]+0.006*[#  21]
          +0.006*[#  10]+0.006*[#  11]+0.006*[#  13]+0.005*[#  27]+0.005*[#  31]
          +0.004*[#  22]+0.004*[#  25]+0.002*[#   2]+0.001*[#   6]+0.001*[#   7]
          +0.001*[#   8]
    |psi|^2 = 0.996
==== e(  23) =    15.36083 eV ==== 
     psi = 0.222*[#  23]+0.222*[#  24]+0.222*[#  26]+0.110*[#  22]+0.110*[#  25]
          +0.013*[#  28]+0.013*[#  29]+0.013*[#  30]+0.013*[#  32]+0.013*[#  33]
          +0.013*[#  34]+0.005*[#   2]+0.005*[#  27]+0.005*[#  31]+0.003*[#   6]
          +0.003*[#   7]+0.003*[#   8]+0.002*[#  15]
    |psi|^2 = 0.994
==== e(  24) =    15.50987 eV ==== 
     psi = 0.194*[#  23]+0.194*[#  24]+0.194*[#  26]+0.174*[#  22]+0.174*[#  25]
          +0.009*[#  28]+0.009*[#  29]+0.009*[#  30]+0.009*[#  32]+0.009*[#  33]
          +0.009*[#  34]+0.006*[#   2]+0.001*[#   9]+0.001*[#  12]+0.001*[#  27]
          +0.001*[#  31]
    |psi|^2 = 0.998
==== e(  25) =    16.77795 eV ==== 
     psi = 0.306*[#  22]+0.306*[#  25]+0.085*[#  23]+0.085*[#  24]+0.085*[#  26]
          +0.016*[#  27]+0.016*[#  31]+0.011*[#  28]+0.011*[#  29]+0.011*[#  30]
          +0.011*[#  32]+0.011*[#  33]+0.011*[#  34]+0.008*[#   2]+0.006*[#   6]
          +0.006*[#   7]+0.006*[#   8]+0.001*[#   9]+0.001*[#  12]
    |psi|^2 = 0.994
==== e(  26) =    16.94712 eV ==== 
     psi = 0.260*[#  22]+0.260*[#  25]+0.127*[#  23]+0.127*[#  24]+0.127*[#  26]
          +0.016*[#   2]+0.012*[#  28]+0.012*[#  29]+0.012*[#  30]+0.012*[#  32]
          +0.012*[#  33]+0.012*[#  34]+0.002*[#  27]+0.002*[#  31]
    |psi|^2 = 0.997
==== e(  27) =    20.84060 eV ==== 
     psi = 0.204*[#   2]+0.080*[#  15]+0.058*[#   6]+0.058*[#   7]+0.058*[#   8]
          +0.046*[#  27]+0.046*[#  31]+0.044*[#  19]+0.044*[#  20]+0.044*[#  21]
          +0.044*[#  28]+0.044*[#  29]+0.044*[#  30]+0.044*[#  32]+0.044*[#  33]
          +0.044*[#  34]+0.014*[#  22]+0.014*[#  25]+0.002*[#   9]+0.002*[#  12]
          +0.001*[#  14]
    |psi|^2 = 0.977
==== e(  28) =    22.64208 eV ==== 
     psi = 0.118*[#  19]+0.118*[#  20]+0.118*[#  21]+0.115*[#   6]+0.115*[#   7]
          +0.115*[#   8]+0.029*[#  27]+0.029*[#  31]+0.019*[#  28]+0.019*[#  29]
          +0.019*[#  30]+0.019*[#  32]+0.019*[#  33]+0.019*[#  34]+0.004*[#  15]
          +0.004*[#  23]+0.004*[#  24]+0.004*[#  26]+0.003*[#  22]+0.003*[#  25]
          +0.003*[#   2]+0.001*[#  10]+0.001*[#  11]+0.001*[#  13]
    |psi|^2 = 0.897
==== e(  29) =    22.84742 eV ==== 
     psi = 0.379*[#   2]+0.322*[#  15]+0.029*[#  28]+0.029*[#  29]+0.029*[#  30]
          +0.029*[#  32]+0.029*[#  33]+0.029*[#  34]+0.016*[#   6]+0.016*[#   7]
          +0.016*[#   8]+0.009*[#   1]+0.008*[#  19]+0.008*[#  20]+0.008*[#  21]
          +0.002*[#  27]+0.002*[#  31]+0.002*[#  14]+0.002*[#  22]+0.002*[#  25]
          
    |psi|^2 = 0.970
==== e(  30) =    24.34391 eV ==== 
     psi = 0.107*[#   6]+0.107*[#   7]+0.107*[#   8]+0.096*[#  19]+0.096*[#  20]
          +0.096*[#  21]+0.033*[#   2]+0.013*[#  15]+0.011*[#  28]+0.011*[#  29]
          +0.011*[#  30]+0.011*[#  32]+0.011*[#  33]+0.011*[#  34]+0.001*[#   1]
          +0.001*[#  10]+0.001*[#  11]+0.001*[#  13]+0.001*[#  23]+0.001*[#  24]
          +0.001*[#  26]
    |psi|^2 = 0.739
==== e(  31) =    24.91476 eV ==== 
     psi = 0.163*[#  15]+0.141*[#   2]+0.108*[#  19]+0.108*[#  20]+0.108*[#  21]
          +0.043*[#   6]+0.043*[#   7]+0.043*[#   8]+0.010*[#   1]+0.011*[#  28]
          +0.011*[#  29]+0.011*[#  30]+0.011*[#  32]+0.011*[#  33]+0.011*[#  34]
          +0.007*[#  14]+0.004*[#  23]+0.004*[#  24]+0.004*[#  26]+0.004*[#  27]
          +0.004*[#  31]
    |psi|^2 = 0.863
==== e(  32) =    25.12563 eV ==== 
     psi = 0.234*[#  15]+0.112*[#   6]+0.112*[#   7]+0.112*[#   8]+0.055*[#  19]
          +0.055*[#  20]+0.055*[#  21]+0.026*[#   2]+0.011*[#  14]+0.009*[#  28]
          +0.009*[#  29]+0.009*[#  30]+0.009*[#  32]+0.009*[#  33]+0.009*[#  34]
          +0.006*[#  23]+0.006*[#  24]+0.006*[#  26]+0.002*[#  27]+0.002*[#  31]
          +0.002*[#   1]
    |psi|^2 = 0.854
==== e(  33) =    29.33177 eV ==== 
     psi = 0.139*[#   6]+0.139*[#   7]+0.139*[#   8]+0.136*[#  19]+0.136*[#  20]
          +0.136*[#  21]+0.013*[#  27]+0.013*[#  31]+0.003*[#  28]+0.003*[#  29]
          +0.003*[#  30]+0.003*[#  32]+0.003*[#  33]+0.003*[#  34]+0.002*[#   3]
          +0.002*[#   4]+0.002*[#   5]+0.001*[#  16]+0.001*[#  17]+0.001*[#  18]
          
    |psi|^2 = 0.880
==== e(  34) =    30.24267 eV ==== 
     psi = 0.137*[#  19]+0.137*[#  20]+0.137*[#  21]+0.128*[#   6]+0.128*[#   7]
          +0.128*[#   8]+0.005*[#  27]+0.005*[#  28]+0.005*[#  29]+0.005*[#  30]
          +0.005*[#  31]+0.005*[#  32]+0.005*[#  33]+0.005*[#  34]+0.002*[#  15]
          +0.002*[#   3]+0.002*[#   4]+0.002*[#   5]+0.002*[#  16]+0.002*[#  17]
          +0.002*[#  18]+0.002*[#   2]
    |psi|^2 = 0.850
==== e(  35) =    32.62885 eV ==== 
     psi = 0.030*[#  19]+0.030*[#  20]+0.030*[#  21]+0.018*[#   6]+0.018*[#   7]
          +0.018*[#   8]+0.003*[#  28]+0.003*[#  29]+0.003*[#  30]+0.003*[#  32]
          +0.003*[#  33]+0.003*[#  34]
    |psi|^2 = 0.164

 k =  -0.5833333333  0.4166666667  0.0833333333
==== e(   1) =   -76.19260 eV ==== 
     psi = 0.969*[#   1]+0.009*[#   2]+0.004*[#  19]+0.004*[#  20]+0.004*[#  21]
          +0.002*[#   6]+0.002*[#   7]+0.002*[#   8]
    |psi|^2 = 1.000
==== e(   2) =   -72.07375 eV ==== 
     psi = 0.970*[#  14]+0.008*[#  15]+0.004*[#   6]+0.004*[#   7]+0.004*[#   8]
          +0.002*[#  19]+0.002*[#  20]+0.002*[#  21]
    |psi|^2 = 1.000
==== e(   3) =   -42.45417 eV ==== 
     psi = 0.330*[#   3]+0.330*[#   4]+0.330*[#   5]
    |psi|^2 = 0.998
==== e(   4) =   -42.41724 eV ==== 
     psi = 0.330*[#   3]+0.330*[#   4]+0.330*[#   5]+0.002*[#   6]+0.002*[#   7]
          +0.002*[#   8]
    |psi|^2 = 0.998
==== e(   5) =   -40.77141 eV ==== 
     psi = 0.329*[#   3]+0.329*[#   4]+0.329*[#   5]+0.002*[#   6]+0.002*[#   7]
[...]
          +0.002*[#  31]
    |psi|^2 = 0.999
==== e(  15) =     7.96924 eV ==== 
     psi = 0.207*[#  23]+0.207*[#  24]+0.207*[#  26]+0.049*[#  28]+0.049*[#  29]
          +0.049*[#  30]+0.049*[#  32]+0.049*[#  33]+0.049*[#  34]+0.016*[#  19]
          +0.016*[#  20]+0.016*[#  21]+0.009*[#   9]+0.009*[#  12]+0.007*[#  15]
          +0.003*[#  27]+0.003*[#  31]+0.002*[#  14]
    |psi|^2 = 0.998
==== e(  16) =     8.48834 eV ==== 
     psi = 0.163*[#  23]+0.163*[#  24]+0.163*[#  26]+0.055*[#  28]+0.055*[#  29]
          +0.055*[#  30]+0.055*[#  32]+0.055*[#  33]+0.055*[#  34]+0.049*[#  15]
          +0.014*[#   6]+0.014*[#   7]+0.014*[#   8]+0.011*[#  22]+0.011*[#  25]
          +0.011*[#  10]+0.011*[#  11]+0.011*[#  13]+0.008*[#  27]+0.008*[#  31]
          +0.005*[#   9]+0.005*[#  12]+0.002*[#  14]+0.001*[#  19]+0.001*[#  20]
          +0.001*[#  21]
    |psi|^2 = 0.998
==== e(  17) =     9.18425 eV ==== 
     psi = 0.107*[#  10]+0.107*[#  11]+0.107*[#  13]+0.087*[#  28]+0.087*[#  29]
          +0.087*[#  30]+0.087*[#  32]+0.087*[#  33]+0.087*[#  34]+0.024*[#  22]
          +0.024*[#  25]+0.020*[#   9]+0.020*[#  12]+0.007*[#  19]+0.007*[#  20]
          +0.007*[#  21]+0.007*[#   6]+0.007*[#   7]+0.007*[#   8]+0.006*[#   2]
          +0.003*[#  23]+0.003*[#  24]+0.003*[#  26]+0.003*[#  27]+0.003*[#  31]
          
    |psi|^2 = 0.997
==== e(  18) =     9.54543 eV ==== 
     psi = 0.086*[#  28]+0.086*[#  29]+0.086*[#  30]+0.086*[#  32]+0.086*[#  33]
          +0.086*[#  34]+0.068*[#   2]+0.058*[#  22]+0.058*[#  25]+0.057*[#  23]
          +0.057*[#  24]+0.057*[#  26]+0.024*[#  27]+0.024*[#  31]+0.017*[#  19]
          +0.017*[#  20]+0.017*[#  21]+0.005*[#  10]+0.005*[#  11]+0.005*[#  13]
          +0.003*[#   1]+0.002*[#   6]+0.002*[#   7]+0.002*[#   8]
    |psi|^2 = 0.997
==== e(  19) =    10.71379 eV ==== 
     psi = 0.100*[#  22]+0.100*[#  25]+0.085*[#  28]+0.085*[#  29]+0.085*[#  30]
          +0.085*[#  32]+0.085*[#  33]+0.085*[#  34]+0.050*[#   9]+0.050*[#  12]
          +0.031*[#  10]+0.031*[#  11]+0.031*[#  13]+0.014*[#  27]+0.014*[#  31]
          +0.010*[#  23]+0.010*[#  24]+0.010*[#  26]+0.007*[#   6]+0.007*[#   7]
          +0.007*[#   8]+0.003*[#  19]+0.003*[#  20]+0.003*[#  21]+0.001*[#   1]
          
    |psi|^2 = 0.994
==== e(  20) =    10.88283 eV ==== 
     psi = 0.101*[#  28]+0.101*[#  29]+0.101*[#  30]+0.101*[#  32]+0.101*[#  33]
          +0.101*[#  34]+0.093*[#  23]+0.093*[#  24]+0.093*[#  26]+0.020*[#  22]
          +0.020*[#  25]+0.019*[#   9]+0.019*[#  12]+0.006*[#  19]+0.006*[#  20]
          +0.006*[#  21]+0.005*[#  15]+0.002*[#   6]+0.002*[#   7]+0.002*[#   8]
          
    |psi|^2 = 0.997
==== e(  21) =    11.88337 eV ==== 
     psi = 0.116*[#  28]+0.116*[#  29]+0.116*[#  30]+0.116*[#  32]+0.116*[#  33]
          +0.116*[#  34]+0.099*[#  22]+0.099*[#  25]+0.017*[#  23]+0.017*[#  24]
          +0.017*[#  26]+0.008*[#   9]+0.008*[#  12]+0.007*[#   6]+0.007*[#   7]
          +0.007*[#   8]+0.004*[#  15]+0.001*[#  10]+0.001*[#  11]+0.001*[#  13]
          
    |psi|^2 = 0.994
==== e(  22) =    11.99040 eV ==== 
     psi = 0.173*[#  10]+0.173*[#  11]+0.173*[#  13]+0.070*[#  28]+0.070*[#  29]
          +0.070*[#  30]+0.070*[#  32]+0.070*[#  33]+0.070*[#  34]+0.015*[#  22]
          +0.015*[#  25]+0.005*[#   6]+0.005*[#   7]+0.005*[#   8]+0.003*[#  27]
          +0.003*[#  31]+0.002*[#   2]
    |psi|^2 = 0.996
==== e(  23) =    15.10146 eV ==== 
     psi = 0.200*[#  10]+0.200*[#  11]+0.200*[#  13]+0.142*[#   9]+0.142*[#  12]
          +0.019*[#  15]+0.017*[#  27]+0.017*[#  31]+0.006*[#  19]+0.006*[#  20]
          +0.006*[#  21]+0.003*[#  28]+0.003*[#  29]+0.003*[#  30]+0.003*[#  32]
          +0.003*[#  33]+0.003*[#  34]+0.003*[#  23]+0.003*[#  24]+0.003*[#  26]
          +0.002*[#   6]+0.002*[#   7]+0.002*[#   8]
    |psi|^2 = 0.991
==== e(  24) =    15.49455 eV ==== 
     psi = 0.209*[#  10]+0.209*[#  11]+0.209*[#  13]+0.146*[#   9]+0.146*[#  12]
          +0.011*[#  28]+0.011*[#  29]+0.011*[#  30]+0.011*[#  32]+0.011*[#  33]
          +0.011*[#  34]+0.001*[#  27]+0.001*[#  31]+0.001*[#  19]+0.001*[#  20]
          +0.001*[#  21]
    |psi|^2 = 0.997
==== e(  25) =    16.50389 eV ==== 
     psi = 0.254*[#   9]+0.254*[#  12]+0.111*[#  10]+0.111*[#  11]+0.111*[#  13]
          +0.021*[#  27]+0.021*[#  31]+0.020*[#  15]+0.010*[#  28]+0.010*[#  29]
          +0.010*[#  30]+0.010*[#  32]+0.010*[#  33]+0.010*[#  34]+0.005*[#  19]
          +0.005*[#  20]+0.005*[#  21]+0.004*[#   6]+0.004*[#   7]+0.004*[#   8]
          
    |psi|^2 = 0.993
==== e(  26) =    16.86046 eV ==== 
     psi = 0.276*[#   9]+0.276*[#  12]+0.117*[#  10]+0.117*[#  11]+0.117*[#  13]
          +0.012*[#  28]+0.012*[#  29]+0.012*[#  30]+0.012*[#  32]+0.012*[#  33]
          +0.012*[#  34]+0.004*[#  27]+0.004*[#  31]+0.003*[#  19]+0.003*[#  20]
          +0.003*[#  21]
    |psi|^2 = 0.996
==== e(  27) =    19.83499 eV ==== 
     psi = 0.213*[#  15]+0.056*[#  27]+0.056*[#  31]+0.051*[#  19]+0.051*[#  20]
          +0.051*[#  21]+0.050*[#  28]+0.050*[#  29]+0.050*[#  30]+0.050*[#  32]
          +0.050*[#  33]+0.050*[#  34]+0.044*[#   9]+0.044*[#  12]+0.036*[#   6]
          +0.036*[#   7]+0.036*[#   8]+0.003*[#  14]
    |psi|^2 = 0.984
==== e(  28) =    20.12627 eV ==== 
     psi = 0.213*[#   2]+0.073*[#  27]+0.073*[#  31]+0.060*[#   6]+0.060*[#   7]
          +0.060*[#   8]+0.047*[#  19]+0.047*[#  20]+0.047*[#  21]+0.045*[#  28]
          +0.045*[#  29]+0.045*[#  30]+0.045*[#  32]+0.045*[#  33]+0.045*[#  34]
          +0.006*[#   1]+0.006*[#  22]+0.006*[#  25]+0.004*[#   9]+0.004*[#  12]
          
    |psi|^2 = 0.981
==== e(  29) =    24.70866 eV ==== 
     psi = 0.086*[#  19]+0.086*[#  20]+0.086*[#  21]+0.078*[#   2]+0.058*[#   6]
          +0.058*[#   7]+0.058*[#   8]+0.007*[#  28]+0.007*[#  29]+0.007*[#  30]
          +0.007*[#  32]+0.007*[#  33]+0.007*[#  34]+0.004*[#   1]+0.003*[#  10]
          +0.003*[#  11]+0.003*[#  13]+0.001*[#  16]+0.001*[#  17]+0.001*[#  18]
          
    |psi|^2 = 0.576
==== e(  30) =    24.95334 eV ==== 
     psi = 0.223*[#  15]+0.087*[#  19]+0.087*[#  20]+0.087*[#  21]+0.038*[#   6]
          +0.038*[#   7]+0.038*[#   8]+0.013*[#  14]+0.007*[#  28]+0.007*[#  29]
          +0.007*[#  30]+0.007*[#  32]+0.007*[#  33]+0.007*[#  34]+0.005*[#  10]
          +0.005*[#  11]+0.005*[#  13]+0.002*[#  27]+0.002*[#  31]+0.001*[#  23]
          +0.001*[#  24]+0.001*[#  26]
    |psi|^2 = 0.684
==== e(  31) =    26.39437 eV ==== 
     psi = 0.304*[#  15]+0.128*[#   6]+0.128*[#   7]+0.128*[#   8]+0.026*[#  14]
          +0.007*[#  19]+0.007*[#  20]+0.007*[#  21]+0.004*[#  27]+0.004*[#  31]
          +0.003*[#  28]+0.003*[#  29]+0.003*[#  30]+0.003*[#  32]+0.003*[#  33]
          +0.003*[#  34]+0.002*[#  10]+0.002*[#  11]+0.002*[#  13]
    |psi|^2 = 0.772
==== e(  32) =    26.66322 eV ==== 
     psi = 0.481*[#   2]+0.087*[#  19]+0.087*[#  20]+0.087*[#  21]+0.031*[#   1]
          +0.019*[#   6]+0.019*[#   7]+0.019*[#   8]+0.003*[#  28]+0.003*[#  29]
          +0.003*[#  30]+0.003*[#  32]+0.003*[#  33]+0.003*[#  34]+0.003*[#  27]
          +0.003*[#  31]
    |psi|^2 = 0.861
==== e(  33) =    30.25006 eV ==== 
     psi = 0.181*[#  19]+0.181*[#  20]+0.181*[#  21]+0.057*[#   6]+0.057*[#   7]
          +0.057*[#   8]+0.005*[#  28]+0.005*[#  29]+0.005*[#  30]+0.005*[#  32]
          +0.005*[#  33]+0.005*[#  34]+0.002*[#  16]+0.002*[#  17]+0.002*[#  18]
          +0.001*[#  27]+0.001*[#  31]
    |psi|^2 = 0.761
==== e(  34) =    30.54312 eV ==== 
     psi = 0.171*[#   6]+0.171*[#   7]+0.171*[#   8]+0.051*[#  19]+0.051*[#  20]
          +0.051*[#  21]+0.005*[#  28]+0.005*[#  29]+0.005*[#  30]+0.005*[#  32]
          +0.005*[#  33]+0.005*[#  34]+0.002*[#   3]+0.002*[#   4]+0.002*[#   5]
          +0.001*[#  15]+0.001*[#  27]+0.001*[#  31]
    |psi|^2 = 0.708
==== e(  35) =    32.01643 eV ==== 
     psi = 0.083*[#   6]+0.083*[#   7]+0.083*[#   8]+0.005*[#  19]+0.005*[#  20]
          +0.005*[#  21]+0.003*[#  28]+0.003*[#  29]+0.003*[#  30]+0.003*[#  32]
          +0.003*[#  33]+0.003*[#  34]
    |psi|^2 = 0.287

 k =  -0.2500000000 -0.2500000000 -0.2500000000
==== e(   1) =   -76.19451 eV ==== 
     psi = 0.906*[#  14]+0.029*[#   6]+0.029*[#   7]+0.029*[#   8]+0.004*[#  15]
          
    |psi|^2 = 1.000
==== e(   2) =   -72.07551 eV ==== 
     psi = 0.907*[#   1]+0.029*[#  19]+0.029*[#  20]+0.029*[#  21]+0.003*[#   2]
          
    |psi|^2 = 1.000
==== e(   3) =   -42.36096 eV ==== 
     psi = 0.328*[#  16]+0.328*[#  17]+0.328*[#  18]+0.005*[#  19]+0.005*[#  20]
          +0.005*[#  21]
    |psi|^2 = 0.999
==== e(   4) =   -42.36095 eV ==== 
     psi = 0.328*[#  16]+0.328*[#  17]+0.328*[#  18]+0.005*[#  19]+0.005*[#  20]
          +0.005*[#  21]
    |psi|^2 = 0.999
==== e(   5) =   -40.78978 eV ==== 
     psi = 0.329*[#  16]+0.329*[#  17]+0.329*[#  18]+0.003*[#   2]+0.002*[#  19]
          +0.002*[#  20]+0.002*[#  21]
    |psi|^2 = 0.998
==== e(   6) =   -38.07766 eV ==== 
     psi = 0.328*[#   3]+0.328*[#   4]+0.328*[#   5]+0.004*[#   6]+0.004*[#   7]
          +0.004*[#   8]
    |psi|^2 = 0.999
==== e(   7) =   -38.07766 eV ==== 
     psi = 0.328*[#   3]+0.328*[#   4]+0.328*[#   5]+0.004*[#   6]+0.004*[#   7]
          +0.004*[#   8]
    |psi|^2 = 0.999
==== e(   8) =   -37.40055 eV ==== 
     psi = 0.329*[#   3]+0.329*[#   4]+0.329*[#   5]+0.003*[#  15]+0.002*[#   6]
          +0.002*[#   7]+0.002*[#   8]
    |psi|^2 = 0.998
==== e(   9) =    -5.45839 eV ==== 
     psi = 0.315*[#  27]+0.315*[#  31]+0.088*[#  15]+0.087*[#   6]+0.087*[#   7]
          +0.087*[#   8]+0.014*[#  14]+0.002*[#   3]+0.002*[#   4]+0.002*[#   5]
          
    |psi|^2 = 1.000
==== e(  10) =    -5.41400 eV ==== 
     psi = 0.319*[#  27]+0.319*[#  31]+0.087*[#  19]+0.087*[#  20]+0.087*[#  21]
          +0.082*[#   2]+0.014*[#   1]+0.001*[#  16]+0.001*[#  17]+0.001*[#  18]
          
    |psi|^2 = 1.000
==== e(  11) =     6.25861 eV ==== 
     psi = 0.254*[#  22]+0.254*[#  25]+0.109*[#  23]+0.109*[#  24]+0.109*[#  26]
          +0.027*[#  28]+0.027*[#  29]+0.027*[#  30]+0.027*[#  32]+0.027*[#  33]
          +0.027*[#  34]
    |psi|^2 = 1.000
==== e(  12) =     6.25863 eV ==== 
     psi = 0.254*[#  22]+0.254*[#  25]+0.109*[#  23]+0.109*[#  24]+0.109*[#  26]
          +0.027*[#  28]+0.027*[#  29]+0.027*[#  30]+0.027*[#  32]+0.027*[#  33]
          +0.027*[#  34]
    |psi|^2 = 1.000
==== e(  13) =     6.70048 eV ==== 
     psi = 0.156*[#  23]+0.156*[#  24]+0.156*[#  26]+0.102*[#  15]+0.063*[#  28]
          +0.063*[#  29]+0.063*[#  30]+0.063*[#  32]+0.063*[#  33]+0.063*[#  34]
          +0.021*[#  27]+0.021*[#  31]+0.004*[#  14]+0.001*[#   6]+0.001*[#   7]
          +0.001*[#   8]
    |psi|^2 = 0.998
==== e(  14) =     7.35536 eV ==== 
     psi = 0.120*[#   2]+0.102*[#  10]+0.102*[#  11]+0.102*[#  13]+0.086*[#  28]
          +0.086*[#  29]+0.086*[#  30]+0.086*[#  32]+0.086*[#  33]+0.086*[#  34]
          +0.023*[#  27]+0.023*[#  31]+0.004*[#   1]+0.002*[#  19]+0.002*[#  20]
          +0.002*[#  21]
    |psi|^2 = 0.997
==== e(  15) =     7.64745 eV ==== 
     psi = 0.220*[#  23]+0.220*[#  24]+0.220*[#  26]+0.153*[#  22]+0.153*[#  25]
          +0.005*[#  28]+0.005*[#  29]+0.005*[#  30]+0.005*[#  32]+0.005*[#  33]
          +0.005*[#  34]
    |psi|^2 = 1.000
==== e(  16) =     7.64747 eV ==== 
     psi = 0.220*[#  23]+0.220*[#  24]+0.220*[#  26]+0.153*[#  22]+0.153*[#  25]
          +0.005*[#  28]+0.005*[#  29]+0.005*[#  30]+0.005*[#  32]+0.005*[#  33]
          +0.005*[#  34]
    |psi|^2 = 1.000
==== e(  17) =    10.09882 eV ==== 
     psi = 0.133*[#  28]+0.133*[#  29]+0.133*[#  30]+0.133*[#  32]+0.133*[#  33]
          +0.133*[#  34]+0.080*[#   9]+0.080*[#  12]+0.010*[#  10]+0.010*[#  11]
          +0.010*[#  13]+0.002*[#  19]+0.002*[#  20]+0.002*[#  21]
    |psi|^2 = 0.995
==== e(  18) =    10.09882 eV ==== 
     psi = 0.133*[#  28]+0.133*[#  29]+0.133*[#  30]+0.133*[#  32]+0.133*[#  33]
          +0.133*[#  34]+0.080*[#   9]+0.080*[#  12]+0.010*[#  10]+0.010*[#  11]
          +0.010*[#  13]+0.002*[#  19]+0.002*[#  20]+0.002*[#  21]
    |psi|^2 = 0.995
==== e(  19) =    10.37734 eV ==== 
     psi = 0.175*[#  23]+0.175*[#  24]+0.175*[#  26]+0.069*[#  15]+0.056*[#  28]
          +0.056*[#  29]+0.056*[#  30]+0.056*[#  32]+0.056*[#  33]+0.056*[#  34]
          +0.022*[#  27]+0.022*[#  31]+0.008*[#   6]+0.008*[#   7]+0.008*[#   8]
          +0.002*[#  14]
    |psi|^2 = 0.997
==== e(  20) =    11.49131 eV ==== 
     psi = 0.227*[#  10]+0.227*[#  11]+0.227*[#  13]+0.038*[#  28]+0.038*[#  29]
          +0.038*[#  30]+0.038*[#  32]+0.038*[#  33]+0.038*[#  34]+0.033*[#   2]
          +0.015*[#  27]+0.015*[#  31]+0.008*[#  19]+0.008*[#  20]+0.008*[#  21]
          +0.003*[#   1]
    |psi|^2 = 0.995
==== e(  21) =    12.27966 eV ==== 
     psi = 0.132*[#  28]+0.132*[#  29]+0.132*[#  30]+0.132*[#  32]+0.132*[#  33]
          +0.132*[#  34]+0.092*[#  22]+0.092*[#  25]+0.003*[#  23]+0.003*[#  24]
          +0.003*[#  26]+0.003*[#   6]+0.003*[#   7]+0.003*[#   8]
    |psi|^2 = 0.993
==== e(  22) =    12.27966 eV ==== 
     psi = 0.132*[#  28]+0.132*[#  29]+0.132*[#  30]+0.132*[#  32]+0.132*[#  33]
          +0.132*[#  34]+0.092*[#  22]+0.092*[#  25]+0.003*[#  23]+0.003*[#  24]
          +0.003*[#  26]+0.003*[#   6]+0.003*[#   7]+0.003*[#   8]
    |psi|^2 = 0.993
==== e(  23) =    15.44966 eV ==== 
     psi = 0.248*[#  10]+0.248*[#  11]+0.248*[#  13]+0.070*[#   9]+0.070*[#  12]
          +0.018*[#  28]+0.018*[#  29]+0.018*[#  30]+0.018*[#  32]+0.018*[#  33]
          +0.018*[#  34]
    |psi|^2 = 0.996
==== e(  24) =    15.44967 eV ==== 
     psi = 0.248*[#  10]+0.248*[#  11]+0.248*[#  13]+0.070*[#   9]+0.070*[#  12]
          +0.018*[#  28]+0.018*[#  29]+0.018*[#  30]+0.018*[#  32]+0.018*[#  33]
          +0.018*[#  34]
    |psi|^2 = 0.996
==== e(  25) =    16.52847 eV ==== 
     psi = 0.347*[#   9]+0.347*[#  12]+0.071*[#  10]+0.071*[#  11]+0.071*[#  13]
          +0.012*[#  28]+0.012*[#  29]+0.012*[#  30]+0.012*[#  32]+0.012*[#  33]
          +0.012*[#  34]+0.004*[#  19]+0.004*[#  20]+0.004*[#  21]
    |psi|^2 = 0.995
==== e(  26) =    16.52848 eV ==== 
     psi = 0.347*[#   9]+0.347*[#  12]+0.071*[#  10]+0.071*[#  11]+0.071*[#  13]
          +0.012*[#  28]+0.012*[#  29]+0.012*[#  30]+0.012*[#  32]+0.012*[#  33]
          +0.012*[#  34]+0.004*[#  19]+0.004*[#  20]+0.004*[#  21]
    |psi|^2 = 0.995
==== e(  27) =    17.52267 eV ==== 
     psi = 0.177*[#  15]+0.129*[#  27]+0.129*[#  31]+0.096*[#   6]+0.096*[#   7]
          +0.096*[#   8]+0.041*[#  28]+0.041*[#  29]+0.041*[#  30]+0.041*[#  32]
          +0.041*[#  33]+0.041*[#  34]+0.016*[#  14]+0.002*[#   3]+0.002*[#   4]
          +0.002*[#   5]
    |psi|^2 = 0.990
==== e(  28) =    17.91153 eV ==== 
     psi = 0.154*[#   2]+0.135*[#  27]+0.135*[#  31]+0.109*[#  19]+0.109*[#  20]
          +0.109*[#  21]+0.035*[#  28]+0.035*[#  29]+0.035*[#  30]+0.035*[#  32]
          +0.035*[#  33]+0.035*[#  34]+0.021*[#   1]+0.002*[#  16]+0.002*[#  17]
          +0.002*[#  18]
    |psi|^2 = 0.988
==== e(  29) =    25.41424 eV ==== 
     psi = 0.334*[#  15]+0.056*[#   6]+0.056*[#   7]+0.056*[#   8]+0.032*[#  14]
          +0.004*[#  28]+0.004*[#  29]+0.004*[#  30]+0.004*[#  32]+0.004*[#  33]
          +0.004*[#  34]+0.003*[#  27]+0.003*[#  31]+0.002*[#  23]+0.002*[#  24]
          +0.002*[#  26]
    |psi|^2 = 0.572
==== e(  30) =    25.48944 eV ==== 
     psi = 0.364*[#   2]+0.048*[#  19]+0.048*[#  20]+0.048*[#  21]+0.028*[#   1]
          +0.005*[#  28]+0.005*[#  29]+0.005*[#  30]+0.005*[#  32]+0.005*[#  33]
          +0.005*[#  34]+0.003*[#  10]+0.003*[#  11]+0.003*[#  13]+0.001*[#  27]
          +0.001*[#  31]
    |psi|^2 = 0.578
==== e(  31) =    30.49383 eV ==== 
     psi = 0.141*[#   6]+0.141*[#   7]+0.141*[#   8]+0.003*[#   3]+0.003*[#   4]
          +0.003*[#   5]
    |psi|^2 = 0.437
==== e(  32) =    30.49384 eV ==== 
     psi = 0.141*[#   6]+0.141*[#   7]+0.141*[#   8]+0.003*[#   3]+0.003*[#   4]
          +0.003*[#   5]
    |psi|^2 = 0.437
==== e(  33) =    30.71217 eV ==== 
     psi = 0.169*[#  19]+0.169*[#  20]+0.169*[#  21]+0.004*[#  10]+0.004*[#  11]
          +0.004*[#  13]+0.004*[#  16]+0.004*[#  17]+0.004*[#  18]+0.002*[#   9]
          +0.002*[#  12]
    |psi|^2 = 0.536
==== e(  34) =    30.71217 eV ==== 
     psi = 0.169*[#  19]+0.169*[#  20]+0.169*[#  21]+0.004*[#  10]+0.004*[#  11]
          +0.004*[#  13]+0.004*[#  16]+0.004*[#  17]+0.004*[#  18]+0.002*[#   9]
          +0.002*[#  12]
    |psi|^2 = 0.536
==== e(  35) =    34.21191 eV ==== 
     psi = 0.140*[#  15]+0.029*[#   6]+0.029*[#   7]+0.029*[#   8]+0.014*[#  14]
          +0.002*[#  27]+0.002*[#  31]+0.001*[#  28]+0.001*[#  29]+0.001*[#  30]
          +0.001*[#  32]+0.001*[#  33]+0.001*[#  34]
    |psi|^2 = 0.255

Lowdin Charges: 

     Atom #   1: total charge =  15.3912, s =  2.2765, p =  6.8009, d =  6.3139, 
                 spin up      =   9.5124, s =  1.1440, 
                 spin up      =   9.5124, p =  3.4022, pz=  1.1341, px=  1.1341, py=  1.1341, 
                 spin up      =   9.5124, d =  4.9663, dz2=  0.9908, dxz=  0.9949, dyz=  0.9949, dx2-y2=  0.9908, dxy=  0.9949, 
                 spin down    =   5.8788, s =  1.1325, 
                 spin down    =   5.8788, p =  3.3987, pz=  1.1329, px=  1.1329, py=  1.1329, 
                 spin down    =   5.8788, d =  1.3476, dz2=  0.1443, dxz=  0.3530, dyz=  0.3530, dx2-y2=  0.1443, dxy=  0.3530, 
                 polarization =   3.6336, s =  0.0115, p =  0.0035, d =  3.6187, 
     Atom #   2: total charge =  15.3912, s =  2.2765, p =  6.8009, d =  6.3139, 
                 spin up      =   5.8788, s =  1.1325, 
                 spin up      =   5.8788, p =  3.3987, pz=  1.1329, px=  1.1329, py=  1.1329, 
                 spin up      =   5.8788, d =  1.3476, dz2=  0.1443, dxz=  0.3530, dyz=  0.3530, dx2-y2=  0.1443, dxy=  0.3530, 
                 spin down    =   9.5124, s =  1.1440, 
                 spin down    =   9.5124, p =  3.4022, pz=  1.1341, px=  1.1341, py=  1.1341, 
                 spin down    =   9.5124, d =  4.9663, dz2=  0.9908, dxz=  0.9949, dyz=  0.9949, dx2-y2=  0.9908, dxy=  0.9949, 
                 polarization =  -3.6336, s = -0.0114, p = -0.0035, d = -3.6187, 
     Atom #   3: total charge =   6.5680, s =  1.6522, p =  4.9158, d =  0.0000, 
                 spin up      =   3.2840, s =  0.8261, 
                 spin up      =   3.2840, p =  2.4579, pz=  0.8193, px=  0.8193, py=  0.8193, 
                 spin up      =   3.2840, d =  0.0000, dz2=  0.0000, dxz=  0.0000, dyz=  0.0000, dx2-y2=  0.0000, dxy=  0.0000, 
                 spin down    =   3.2840, s =  0.8261, 
                 spin down    =   3.2840, p =  2.4579, pz=  0.8193, px=  0.8193, py=  0.8193, 
                 spin down    =   3.2840, d =  0.0000, dz2=  0.0000, dxz=  0.0000, dyz=  0.0000, dx2-y2=  0.0000, dxy=  0.0000, 
                 polarization =  -0.0000, s = -0.0000, p = -0.0000, d =  0.0000, 
     Atom #   4: total charge =   6.5680, s =  1.6522, p =  4.9158, d =  0.0000, 
                 spin up      =   3.2840, s =  0.8261, 
                 spin up      =   3.2840, p =  2.4579, pz=  0.8193, px=  0.8193, py=  0.8193, 
                 spin up      =   3.2840, d =  0.0000, dz2=  0.0000, dxz=  0.0000, dyz=  0.0000, dx2-y2=  0.0000, dxy=  0.0000, 
                 spin down    =   3.2840, s =  0.8261, 
                 spin down    =   3.2840, p =  2.4579, pz=  0.8193, px=  0.8193, py=  0.8193, 
                 spin down    =   3.2840, d =  0.0000, dz2=  0.0000, dxz=  0.0000, dyz=  0.0000, dx2-y2=  0.0000, dxy=  0.0000, 
                 polarization =  -0.0000, s = -0.0000, p = -0.0000, d =  0.0000, 
     Spilling Parameter:   0.0019
 
     PROJWFC      :      2.13s CPU      2.36s WALL

 
   This run was terminated on:  14:54:37  16Apr2021            

=------------------------------------------------------------------------------=
   JOB DONE.
=------------------------------------------------------------------------------=
