
     Program PWSCF v.6.7MaX starts on 16Apr2021 at 14:52:19 

     This program is part of the open-source Quantum ESPRESSO suite
     for quantum simulation of materials; please cite
         "P. Giannozzi et al., J. Phys.:Condens. Matter 21 395502 (2009);
         "P. Giannozzi et al., J. Phys.:Condens. Matter 29 465901 (2017);
          URL http://www.quantum-espresso.org", 
     in publications or presentations arising from this work. More details at
     http://www.quantum-espresso.org/quote

     Parallel version (MPI), running on     1 processors

     MPI processes distributed on     1 nodes
     Waiting for input...
     Reading input from standard input

     Current dimensions of program PWSCF are:
     Max number of different atomic species (ntypx) = 10
     Max number of k-points (npk) =  40000
     Max angular momentum in pseudopotentials (lmaxx) =  3
     Message from routine volume:
     axis vectors are left-handed

     Atomic positions and unit cell read from directory:
     ./tmp/FeO.save/
     Atomic positions from file used, from input discarded
 
     Message from routine volume:
     axis vectors are left-handed
     file Fe.pbesol-spn-kjpaw_psl.0.2.1.UPF: wavefunction(s)  3D renormalized
     file Fe.pbesol-spn-kjpaw_psl.0.2.1.UPF: wavefunction(s)  3D renormalized
     file O.pbesol-n-kjpaw_psl.0.1.UPF: wavefunction(s)  2P renormalized

     Subspace diagonalization in iterative solution of the eigenvalue problem:
     a serial algorithm will be used

     Message from routine setup:
     using ibrav=0 with symmetry is DISCOURAGED, use correct ibrav instead
 
     G-vector sticks info
     --------------------
     sticks:   dense  smooth     PW     G-vecs:    dense   smooth      PW
     Sum        1061     539    189                17255     6111    1273
 


     bravais-lattice index     =            0
     lattice parameter (alat)  =       8.1900  a.u.
     unit-cell volume          =     274.6766 (a.u.)^3
     number of atoms/cell      =            4
     number of atomic types    =            3
     number of electrons       =        44.00
     number of Kohn-Sham states=           35
     kinetic-energy cutoff     =      30.0000  Ry
     charge density cutoff     =     240.0000  Ry
     Exchange-correlation= SLA  PW   PSX  PSC
                           (   1   4  10   8   0   0   0)

     celldm(1)=   8.190000  celldm(2)=   0.000000  celldm(3)=   0.000000
     celldm(4)=   0.000000  celldm(5)=   0.000000  celldm(6)=   0.000000

     crystal axes: (cart. coord. in units of alat)
               a(1) = (   0.500000   0.500000   1.000000 )  
               a(2) = (   0.500000   1.000000   0.500000 )  
               a(3) = (   1.000000   0.500000   0.500000 )  

     reciprocal axes: (cart. coord. in units 2 pi/alat)
               b(1) = ( -0.500000 -0.500000  1.500000 )  
               b(2) = ( -0.500000  1.500000 -0.500000 )  
               b(3) = (  1.500000 -0.500000 -0.500000 )  


     PseudoPot. # 1 for Fe read from file:
     ../../pseudo/Fe.pbesol-spn-kjpaw_psl.0.2.1.UPF
     MD5 check sum: 7febcda02fc281f884e3aa15a414695d
     Pseudo is Projector augmented-wave + core cor, Zval = 16.0
     Generated using "atomic" code by A. Dal Corso  v.6.0 svn rev. 13079
     Shape of augmentation charge: PSQ
     Using radial grid of 1191 points,  6 beta functions with: 
                l(1) =   0
                l(2) =   0
                l(3) =   1
                l(4) =   1
                l(5) =   2
                l(6) =   2
     Q(r) pseudized with 0 coefficients 


     PseudoPot. # 2 for Fe read from file:
     ../../pseudo/Fe.pbesol-spn-kjpaw_psl.0.2.1.UPF
     MD5 check sum: 7febcda02fc281f884e3aa15a414695d
     Pseudo is Projector augmented-wave + core cor, Zval = 16.0
     Generated using "atomic" code by A. Dal Corso  v.6.0 svn rev. 13079
     Shape of augmentation charge: PSQ
     Using radial grid of 1191 points,  6 beta functions with: 
                l(1) =   0
                l(2) =   0
                l(3) =   1
                l(4) =   1
                l(5) =   2
                l(6) =   2
     Q(r) pseudized with 0 coefficients 


     PseudoPot. # 3 for O  read from file:
     ../../pseudo/O.pbesol-n-kjpaw_psl.0.1.UPF
     MD5 check sum: 126339daddaa87477ab44acfa0b5aa00
     Pseudo is Projector augmented-wave + core cor, Zval =  6.0
     Generated using "atomic" code by A. Dal Corso  v.6.0 svn rev. 13079
     Shape of augmentation charge: BESSEL
     Using radial grid of 1095 points,  4 beta functions with: 
                l(1) =   0
                l(2) =   0
                l(3) =   1
                l(4) =   1
     Q(r) pseudized with 0 coefficients 


     atomic species   valence    mass     pseudopotential
        Fe1           16.00    55.84500     Fe( 1.00)
        Fe2           16.00    55.84500     Fe( 1.00)
        O              6.00    16.00000     O ( 1.00)

     Starting magnetic structure 
     atomic species   magnetization
        Fe1          0.500
        Fe2         -0.500
        O            0.000


     Simplified LDA+U calculation (l_max = 2) with parameters (eV):
     atomic species    L          U    alpha       J0     beta
        Fe1            2     4.6000   0.0000   0.0000   0.0000
        Fe2            2     4.6000   0.0000   0.0000   0.0000



     12 Sym. Ops., with inversion, found


                                    s                        frac. trans.

      isym =  1     identity                                     

 cryst.   s( 1) = (     1          0          0      )
                  (     0          1          0      )
                  (     0          0          1      )

 cart.    s( 1) = (  1.0000000  0.0000000  0.0000000 )
                  (  0.0000000  1.0000000  0.0000000 )
                  (  0.0000000  0.0000000  1.0000000 )


      isym =  2     180 deg rotation - cart. axis [1,-1,0]       

 cryst.   s( 2) = (    -1          0          0      )
                  (     0          0         -1      )
                  (     0         -1          0      )

 cart.    s( 2) = (  0.0000000 -1.0000000  0.0000000 )
                  ( -1.0000000  0.0000000  0.0000000 )
                  (  0.0000000  0.0000000 -1.0000000 )


      isym =  3     180 deg rotation - cart. axis [-1,0,1]       

 cryst.   s( 3) = (     0          0         -1      )
                  (     0         -1          0      )
                  (    -1          0          0      )

 cart.    s( 3) = (  0.0000000  0.0000000 -1.0000000 )
                  (  0.0000000 -1.0000000  0.0000000 )
                  ( -1.0000000  0.0000000  0.0000000 )


      isym =  4     180 deg rotation - cart. axis [0,1,-1]       

 cryst.   s( 4) = (     0         -1          0      )
                  (    -1          0          0      )
                  (     0          0         -1      )

 cart.    s( 4) = ( -1.0000000  0.0000000  0.0000000 )
                  (  0.0000000  0.0000000 -1.0000000 )
                  (  0.0000000 -1.0000000  0.0000000 )


      isym =  5     120 deg rotation - cart. axis [-1,-1,-1]     

 cryst.   s( 5) = (     0          1          0      )
                  (     0          0          1      )
                  (     1          0          0      )

 cart.    s( 5) = (  0.0000000  1.0000000  0.0000000 )
                  (  0.0000000  0.0000000  1.0000000 )
                  (  1.0000000  0.0000000  0.0000000 )


      isym =  6     120 deg rotation - cart. axis [1,1,1]        

 cryst.   s( 6) = (     0          0          1      )
                  (     1          0          0      )
                  (     0          1          0      )

 cart.    s( 6) = (  0.0000000  0.0000000  1.0000000 )
                  (  1.0000000  0.0000000  0.0000000 )
                  (  0.0000000  1.0000000  0.0000000 )


      isym =  7     inversion                                    

 cryst.   s( 7) = (    -1          0          0      )
                  (     0         -1          0      )
                  (     0          0         -1      )

 cart.    s( 7) = ( -1.0000000  0.0000000  0.0000000 )
                  (  0.0000000 -1.0000000  0.0000000 )
                  (  0.0000000  0.0000000 -1.0000000 )


      isym =  8     inv. 180 deg rotation - cart. axis [1,-1,0]  

 cryst.   s( 8) = (     1          0          0      )
                  (     0          0          1      )
                  (     0          1          0      )

 cart.    s( 8) = (  0.0000000  1.0000000  0.0000000 )
                  (  1.0000000  0.0000000  0.0000000 )
                  (  0.0000000  0.0000000  1.0000000 )


      isym =  9     inv. 180 deg rotation - cart. axis [-1,0,1]  

 cryst.   s( 9) = (     0          0          1      )
                  (     0          1          0      )
                  (     1          0          0      )

 cart.    s( 9) = (  0.0000000  0.0000000  1.0000000 )
                  (  0.0000000  1.0000000  0.0000000 )
                  (  1.0000000  0.0000000  0.0000000 )


      isym = 10     inv. 180 deg rotation - cart. axis [0,1,-1]  

 cryst.   s(10) = (     0          1          0      )
                  (     1          0          0      )
                  (     0          0          1      )

 cart.    s(10) = (  1.0000000  0.0000000  0.0000000 )
                  (  0.0000000  0.0000000  1.0000000 )
                  (  0.0000000  1.0000000  0.0000000 )


      isym = 11     inv. 120 deg rotation - cart. axis [-1,-1,-1]

 cryst.   s(11) = (     0         -1          0      )
                  (     0          0         -1      )
                  (    -1          0          0      )

 cart.    s(11) = (  0.0000000 -1.0000000  0.0000000 )
                  (  0.0000000  0.0000000 -1.0000000 )
                  ( -1.0000000  0.0000000  0.0000000 )


      isym = 12     inv. 120 deg rotation - cart. axis [1,1,1]   

 cryst.   s(12) = (     0          0         -1      )
                  (    -1          0          0      )
                  (     0         -1          0      )

 cart.    s(12) = (  0.0000000  0.0000000 -1.0000000 )
                  ( -1.0000000  0.0000000  0.0000000 )
                  (  0.0000000 -1.0000000  0.0000000 )


   Cartesian axes

     site n.     atom                  positions (alat units)
         1           Fe1 tau(   1) = (   0.0000000   0.0000000   0.0000000  )
         2           Fe2 tau(   2) = (   1.0000000   1.0000000   1.0000000  )
         3           O   tau(   3) = (   0.5000000   0.5000000   0.5000000  )
         4           O   tau(   4) = (   1.5000000   1.5000000   1.5000000  )

   Crystallographic axes

     site n.     atom                  positions (cryst. coord.)
         1           Fe1 tau(   1) = (  0.0000000  0.0000000  0.0000000  )
         2           Fe2 tau(   2) = (  0.5000000  0.5000000  0.5000000  )
         3           O   tau(   3) = (  0.2500000  0.2500000  0.2500000  )
         4           O   tau(   4) = (  0.7500000  0.7500000  0.7500000  )

     number of k points=    32  Marzari-Vanderbilt smearing, width (Ry)=  0.0200
                       cart. coord. in units 2pi/alat
        k(    1) = (   0.0000000   0.0000000   0.0000000), wk =   0.0046296
        k(    2) = (   0.2500000  -0.0833333  -0.0833333), wk =   0.0277778
        k(    3) = (   0.5000000  -0.1666667  -0.1666667), wk =   0.0277778
        k(    4) = (  -0.7500000   0.2500000   0.2500000), wk =   0.0138889
        k(    5) = (   0.1666667   0.1666667  -0.1666667), wk =   0.0277778
        k(    6) = (   0.4166667   0.0833333  -0.2500000), wk =   0.0555556
        k(    7) = (  -0.8333333   0.5000000   0.1666667), wk =   0.0555556
        k(    8) = (  -0.5833333   0.4166667   0.0833333), wk =   0.0555556
        k(    9) = (  -0.3333333   0.3333333  -0.0000000), wk =   0.0277778
        k(   10) = (   0.3333333   0.3333333  -0.3333333), wk =   0.0277778
        k(   11) = (  -0.9166667   0.7500000   0.0833333), wk =   0.0555556
        k(   12) = (  -0.6666667   0.6666667   0.0000000), wk =   0.0277778
        k(   13) = (  -0.5000000  -0.5000000   0.5000000), wk =   0.0138889
        k(   14) = (   0.0833333   0.0833333   0.0833333), wk =   0.0092593
        k(   15) = (   0.3333333   0.0000000   0.0000000), wk =   0.0277778
        k(   16) = (  -0.9166667   0.4166667   0.4166667), wk =   0.0277778
        k(   17) = (  -0.6666667   0.3333333   0.3333333), wk =   0.0277778
        k(   18) = (  -0.4166667   0.2500000   0.2500000), wk =   0.0277778
        k(   19) = (   0.2500000   0.2500000  -0.0833333), wk =   0.0277778
        k(   20) = (  -1.0000000   0.6666667   0.3333333), wk =   0.0555556
        k(   21) = (  -0.7500000   0.5833333   0.2500000), wk =   0.0555556
        k(   22) = (  -0.5000000   0.5000000   0.1666667), wk =   0.0555556
        k(   23) = (  -0.5833333  -0.5833333   0.7500000), wk =   0.0277778
        k(   24) = (  -0.3333333  -0.6666667   0.6666667), wk =   0.0555556
        k(   25) = (  -0.0833333  -0.7500000   0.5833333), wk =   0.0277778
        k(   26) = (  -0.4166667  -0.4166667   0.5833333), wk =   0.0277778
        k(   27) = (   0.1666667   0.1666667   0.1666667), wk =   0.0092593
        k(   28) = (  -1.0833333   0.5833333   0.5833333), wk =   0.0277778
        k(   29) = (  -0.8333333   0.5000000   0.5000000), wk =   0.0277778
        k(   30) = (  -0.6666667  -0.6666667   1.0000000), wk =   0.0277778
        k(   31) = (  -0.4166667  -0.7500000   0.9166667), wk =   0.0277778
        k(   32) = (  -0.2500000  -0.2500000  -0.2500000), wk =   0.0046296

                       cryst. coord.
        k(    1) = (   0.0000000   0.0000000   0.0000000), wk =   0.0046296
        k(    2) = (   0.0000000   0.0000000   0.1666667), wk =   0.0277778
        k(    3) = (   0.0000000   0.0000000   0.3333333), wk =   0.0277778
        k(    4) = (   0.0000000   0.0000000  -0.5000000), wk =   0.0138889
        k(    5) = (   0.0000000   0.1666667   0.1666667), wk =   0.0277778
        k(    6) = (   0.0000000   0.1666667   0.3333333), wk =   0.0555556
        k(    7) = (   0.0000000   0.1666667  -0.5000000), wk =   0.0555556
        k(    8) = (   0.0000000   0.1666667  -0.3333333), wk =   0.0555556
        k(    9) = (   0.0000000   0.1666667  -0.1666667), wk =   0.0277778
        k(   10) = (   0.0000000   0.3333333   0.3333333), wk =   0.0277778
        k(   11) = (   0.0000000   0.3333333  -0.5000000), wk =   0.0555556
        k(   12) = (   0.0000000   0.3333333  -0.3333333), wk =   0.0277778
        k(   13) = (   0.0000000  -0.5000000  -0.5000000), wk =   0.0138889
        k(   14) = (   0.1666667   0.1666667   0.1666667), wk =   0.0092593
        k(   15) = (   0.1666667   0.1666667   0.3333333), wk =   0.0277778
        k(   16) = (   0.1666667   0.1666667  -0.5000000), wk =   0.0277778
        k(   17) = (   0.1666667   0.1666667  -0.3333333), wk =   0.0277778
        k(   18) = (   0.1666667   0.1666667  -0.1666667), wk =   0.0277778
        k(   19) = (   0.1666667   0.3333333   0.3333333), wk =   0.0277778
        k(   20) = (   0.1666667   0.3333333  -0.5000000), wk =   0.0555556
        k(   21) = (   0.1666667   0.3333333  -0.3333333), wk =   0.0555556
        k(   22) = (   0.1666667   0.3333333  -0.1666667), wk =   0.0555556
        k(   23) = (   0.1666667  -0.5000000  -0.5000000), wk =   0.0277778
        k(   24) = (   0.1666667  -0.5000000  -0.3333333), wk =   0.0555556
        k(   25) = (   0.1666667  -0.5000000  -0.1666667), wk =   0.0277778
        k(   26) = (   0.1666667  -0.3333333  -0.3333333), wk =   0.0277778
        k(   27) = (   0.3333333   0.3333333   0.3333333), wk =   0.0092593
        k(   28) = (   0.3333333   0.3333333  -0.5000000), wk =   0.0277778
        k(   29) = (   0.3333333   0.3333333  -0.3333333), wk =   0.0277778
        k(   30) = (   0.3333333  -0.5000000  -0.5000000), wk =   0.0277778
        k(   31) = (   0.3333333  -0.5000000  -0.3333333), wk =   0.0277778
        k(   32) = (  -0.5000000  -0.5000000  -0.5000000), wk =   0.0046296

     Dense  grid:    17255 G-vectors     FFT dimensions: (  50,  50,  50)

     Smooth grid:     6111 G-vectors     FFT dimensions: (  36,  36,  36)

     Dynamical RAM for                 wfc:       0.41 MB

     Dynamical RAM for     wfc (w. buffer):       0.41 MB

     Dynamical RAM for             U proj.:       0.12 MB

     Dynamical RAM for  U proj. (w. buff.):       0.12 MB

     Dynamical RAM for           str. fact:       0.79 MB

     Dynamical RAM for           local pot:       0.00 MB

     Dynamical RAM for          nlocal pot:       0.60 MB

     Dynamical RAM for                qrad:       3.73 MB

     Dynamical RAM for          rho,v,vnew:       7.30 MB

     Dynamical RAM for           G-vectors:       1.03 MB

     Dynamical RAM for          h,s,v(r/c):       0.22 MB

     Dynamical RAM for          <psi|beta>:       0.03 MB

     Dynamical RAM for                 psi:       0.81 MB

     Dynamical RAM for                hpsi:       0.81 MB

     Dynamical RAM for                spsi:       0.81 MB

     Dynamical RAM for      wfcinit/wfcrot:       0.84 MB

     Dynamical RAM for           addusdens:      49.76 MB

     Estimated static dynamical RAM per process >      20.76 MB

     Estimated max dynamical RAM per process >      70.52 MB

     Check: negative core charge=   -0.000246
     Generating pointlists ...
     new r_m :   0.2063 (alat units)  1.6892 (a.u.) for type    1
     new r_m :   0.2063 (alat units)  1.6892 (a.u.) for type    2
     new r_m :   0.2063 (alat units)  1.6892 (a.u.) for type    3

     The potential is recalculated from file :
     ./tmp/FeO.save/charge-density


     negative rho (up, down):  2.730E-04 2.729E-04
 --- in v_hubbard ---
Hubbard energy    0.1612
 -------
     Number of +U iterations with fixed ns =  0
     Starting occupations:
 --- enter write_ns ---
 LDA+U parameters:
U( 1)     =  4.60000000
U( 2)     =  4.60000000
atom    1   Tr[ns(na)] (up, down, total) =   4.99864  1.58040  6.57904
   spin  1
    eigenvalues: 
  0.998  0.998  0.999  1.002  1.002
    eigenvectors:
  0.184  0.733  0.000  0.048  0.035
  0.055  0.000  0.333  0.020  0.591
  0.017  0.038  0.333  0.543  0.068
  0.733  0.184  0.000  0.035  0.048
  0.011  0.044  0.333  0.354  0.257
    occupations:
  0.998 -0.000 -0.000  0.000 -0.001
 -0.000  1.001 -0.001 -0.001  0.001
 -0.000 -0.001  1.001  0.001  0.001
  0.000 -0.001  0.001  0.998 -0.000
 -0.001  0.001  0.001 -0.000  1.001
   spin  2
    eigenvalues: 
  0.067  0.067  0.225  0.225  0.998
    eigenvectors:
  0.020  0.001  0.009  0.970  0.000
  0.048  0.605  0.012  0.002  0.333
  0.319  0.334  0.009  0.005  0.333
  0.001  0.020  0.970  0.009  0.000
  0.613  0.040  0.000  0.014  0.333
    occupations:
  0.221  0.009  0.009 -0.000  0.018
  0.009  0.379  0.309  0.016 -0.309
  0.009  0.309  0.379 -0.016 -0.309
 -0.000  0.016 -0.016  0.221 -0.000
  0.018 -0.309 -0.309 -0.000  0.379
atomic mag. moment =   3.41824
atom    2   Tr[ns(na)] (up, down, total) =   1.58037  4.99869  6.57906
   spin  1
    eigenvalues: 
  0.067  0.067  0.225  0.225  0.997
    eigenvectors:
  0.020  0.001  0.023  0.957  0.000
  0.081  0.572  0.012  0.002  0.333
  0.263  0.389  0.008  0.005  0.333
  0.001  0.020  0.957  0.023  0.000
  0.635  0.018  0.000  0.014  0.333
    occupations:
  0.221  0.009  0.009 -0.000  0.018
  0.009  0.379  0.309  0.016 -0.309
  0.009  0.309  0.379 -0.016 -0.309
 -0.000  0.016 -0.016  0.221 -0.000
  0.018 -0.309 -0.309 -0.000  0.379
   spin  2
    eigenvalues: 
  0.998  0.998  0.999  1.002  1.002
    eigenvectors:
  0.477  0.440  0.000  0.052  0.031
  0.051  0.004  0.333  0.012  0.600
  0.003  0.052  0.333  0.525  0.086
  0.440  0.477  0.000  0.031  0.052
  0.029  0.027  0.333  0.380  0.231
    occupations:
  0.998 -0.000 -0.000  0.000 -0.001
 -0.000  1.001 -0.001 -0.001  0.001
 -0.000 -0.001  1.001  0.001  0.001
  0.000 -0.001  0.001  0.998 -0.000
 -0.001  0.001  0.001 -0.000  1.001
atomic mag. moment =  -3.41832
N of occupied +U levels =   13.158099
 --- exit write_ns ---
 Atomic wfc used for LDA+U Projector are NOT orthogonalized
     Starting wfcs are   34 randomized atomic wfcs +    1 random wfcs
     Checking if some PAW data can be deallocated... 

     Band Structure Calculation
     Davidson diagonalization with overlap

     Computing kpt #:     1  of    64
     total cpu time spent up to now is        2.5 secs

     Computing kpt #:     2  of    64
     total cpu time spent up to now is        3.2 secs

     Computing kpt #:     3  of    64
     total cpu time spent up to now is        3.8 secs

     Computing kpt #:     4  of    64
     total cpu time spent up to now is        4.5 secs

     Computing kpt #:     5  of    64
     total cpu time spent up to now is        5.1 secs

     Computing kpt #:     6  of    64
     total cpu time spent up to now is        5.8 secs

     Computing kpt #:     7  of    64
     total cpu time spent up to now is        6.4 secs

     Computing kpt #:     8  of    64
     total cpu time spent up to now is        7.1 secs

     Computing kpt #:     9  of    64
     total cpu time spent up to now is        7.7 secs

     Computing kpt #:    10  of    64
     total cpu time spent up to now is        8.3 secs

     Computing kpt #:    11  of    64
     total cpu time spent up to now is        9.0 secs

     Computing kpt #:    12  of    64
     total cpu time spent up to now is        9.6 secs

     Computing kpt #:    13  of    64
     total cpu time spent up to now is       10.1 secs

     Computing kpt #:    14  of    64
     total cpu time spent up to now is       10.7 secs

     Computing kpt #:    15  of    64
     total cpu time spent up to now is       11.3 secs

     Computing kpt #:    16  of    64
     total cpu time spent up to now is       11.9 secs

     Computing kpt #:    17  of    64
     total cpu time spent up to now is       12.6 secs

     Computing kpt #:    18  of    64
     total cpu time spent up to now is       13.2 secs

     Computing kpt #:    19  of    64
     total cpu time spent up to now is       13.8 secs

     Computing kpt #:    20  of    64
     total cpu time spent up to now is       14.5 secs

     Computing kpt #:    21  of    64
     total cpu time spent up to now is       15.1 secs

     Computing kpt #:    22  of    64
     total cpu time spent up to now is       15.8 secs

     Computing kpt #:    23  of    64
     total cpu time spent up to now is       16.4 secs

     Computing kpt #:    24  of    64
     total cpu time spent up to now is       17.0 secs

     Computing kpt #:    25  of    64
     total cpu time spent up to now is       17.7 secs

     Computing kpt #:    26  of    64
     total cpu time spent up to now is       18.2 secs

     Computing kpt #:    27  of    64
     total cpu time spent up to now is       18.8 secs

     Computing kpt #:    28  of    64
     total cpu time spent up to now is       19.4 secs

     Computing kpt #:    29  of    64
     total cpu time spent up to now is       20.0 secs

     Computing kpt #:    30  of    64
     total cpu time spent up to now is       20.6 secs

     Computing kpt #:    31  of    64
     total cpu time spent up to now is       21.3 secs

     Computing kpt #:    32  of    64
     total cpu time spent up to now is       22.0 secs

     Computing kpt #:    33  of    64
     total cpu time spent up to now is       22.5 secs

     Computing kpt #:    34  of    64
     total cpu time spent up to now is       23.2 secs

     Computing kpt #:    35  of    64
     total cpu time spent up to now is       23.9 secs

     Computing kpt #:    36  of    64
     total cpu time spent up to now is       24.5 secs

     Computing kpt #:    37  of    64
     total cpu time spent up to now is       25.2 secs

     Computing kpt #:    38  of    64
     total cpu time spent up to now is       25.8 secs

     Computing kpt #:    39  of    64
     total cpu time spent up to now is       26.5 secs

     Computing kpt #:    40  of    64
     total cpu time spent up to now is       27.1 secs

     Computing kpt #:    41  of    64
     total cpu time spent up to now is       27.8 secs

     Computing kpt #:    42  of    64
     total cpu time spent up to now is       28.4 secs

     Computing kpt #:    43  of    64
     total cpu time spent up to now is       29.0 secs

     Computing kpt #:    44  of    64
     total cpu time spent up to now is       29.6 secs

     Computing kpt #:    45  of    64
     total cpu time spent up to now is       30.2 secs

     Computing kpt #:    46  of    64
     total cpu time spent up to now is       30.8 secs

     Computing kpt #:    47  of    64
     total cpu time spent up to now is       31.4 secs

     Computing kpt #:    48  of    64
     total cpu time spent up to now is       32.0 secs

     Computing kpt #:    49  of    64
     total cpu time spent up to now is       32.6 secs

     Computing kpt #:    50  of    64
     total cpu time spent up to now is       33.2 secs

     Computing kpt #:    51  of    64
     total cpu time spent up to now is       33.8 secs

     Computing kpt #:    52  of    64
     total cpu time spent up to now is       34.5 secs

     Computing kpt #:    53  of    64
     total cpu time spent up to now is       35.1 secs

     Computing kpt #:    54  of    64
     total cpu time spent up to now is       35.8 secs

     Computing kpt #:    55  of    64
     total cpu time spent up to now is       36.3 secs

     Computing kpt #:    56  of    64
     total cpu time spent up to now is       36.9 secs

     Computing kpt #:    57  of    64
     total cpu time spent up to now is       37.6 secs

     Computing kpt #:    58  of    64
     total cpu time spent up to now is       38.1 secs

     Computing kpt #:    59  of    64
     total cpu time spent up to now is       38.8 secs

     Computing kpt #:    60  of    64
     total cpu time spent up to now is       39.4 secs

     Computing kpt #:    61  of    64
     total cpu time spent up to now is       40.0 secs

     Computing kpt #:    62  of    64
     total cpu time spent up to now is       40.6 secs

     Computing kpt #:    63  of    64
     total cpu time spent up to now is       41.3 secs

     Computing kpt #:    64  of    64
     total cpu time spent up to now is       42.0 secs

     ethr =  2.27E-12,  avg # of iterations = 30.1

     total cpu time spent up to now is       42.0 secs

     End of band structure calculation

 ------ SPIN UP ------------


          k = 0.0000 0.0000 0.0000 (   731 PWs)   bands (ev):

   -76.1888 -72.0703 -42.3478 -42.3478 -40.7558 -38.0622 -38.0622 -37.3629
    -6.0015  -4.7546   4.9416   6.1814   6.1814   7.6164   7.6164   9.2928
    11.0702  11.1280  11.1280  11.2002  11.2002  11.8046  14.8400  15.5151
    15.5151  16.6953  16.6953  19.4657  23.2876  29.0012  29.0012  29.3443
    31.0445  31.0445  31.1866

     occupation numbers 
     1.0000   1.0000   1.0000   1.0000   1.0000   1.0000   1.0000   1.0000
     1.0000   1.0000   1.0000   1.0000   1.0000   1.0000   1.0000   1.0000
     1.0000   1.0000   1.0000   1.0000   1.0000   1.0000   0.0000   0.0000
     0.0000   0.0000   0.0000   0.0000   0.0000   0.0000   0.0000   0.0000
     0.0000   0.0000   0.0000

          k = 0.2500-0.0833-0.0833 (   751 PWs)   bands (ev):

   -76.1938 -72.0750 -42.3880 -42.3728 -40.7758 -38.1052 -38.0877 -37.3882
    -5.7627  -4.7970   5.4852   6.2002   6.4230   7.3486   7.4616   9.1125
     9.7995  10.4744  10.7282  11.5052  11.6605  11.7615  15.4029  15.5256
    16.0009  16.7858  16.8645  20.9158  23.1790  26.5297  27.1865  29.7566
    30.6884  30.8778  33.8098

     occupation numbers 
     1.0000   1.0000   1.0000   1.0000   1.0000   1.0000   1.0000   1.0000
     1.0000   1.0000   1.0000   1.0000   1.0000   1.0000   1.0000   1.0000
     1.0000   1.0000   1.0000   1.0000   1.0000   1.0000   0.0000   0.0000
     0.0000   0.0000   0.0000   0.0000   0.0000   0.0000   0.0000   0.0000
     0.0000   0.0000   0.0000

          k = 0.5000-0.1667-0.1667 (   758 PWs)   bands (ev):

   -76.1916 -72.0703 -42.4303 -42.3771 -40.7733 -38.1523 -38.0943 -37.3890
    -5.3021  -4.8041   5.6681   6.4099   6.7090   7.2767   7.4886   8.6988
     8.7625  10.1509  10.3583  11.2649  11.6159  11.8201  15.3556  15.5246
    16.3300  16.9844  19.2247  22.7026  23.2080  23.9649  25.1930  28.0846
    29.9532  30.7864  32.3453

     occupation numbers 
     1.0000   1.0000   1.0000   1.0000   1.0000   1.0000   1.0000   1.0000
     1.0000   1.0000   1.0000   1.0000   1.0000   1.0000   1.0000   1.0000
     1.0000   1.0000   1.0000   1.0000   1.0000   1.0000   0.0000   0.0000
     0.0000   0.0000   0.0000   0.0000   0.0000   0.0000   0.0000   0.0000
     0.0000   0.0000   0.0000

          k =-0.7500 0.2500 0.2500 (   764 PWs)   bands (ev):

   -76.1926 -72.0690 -42.4516 -42.3807 -40.7794 -38.1764 -38.0998 -37.3963
    -5.1546  -4.6920   5.4048   6.3888   6.6536   7.4029   7.8291   8.6824
     8.7009   9.7472  10.0205  11.4020  11.4697  11.9465  15.3687  15.5211
    16.6247  17.0815  21.0697  21.4214  23.2120  23.8306  25.2630  25.7146
    29.8865  30.5212  32.3524

     occupation numbers 
     1.0000   1.0000   1.0000   1.0000   1.0000   1.0000   1.0000   1.0000
     1.0000   1.0000   1.0000   1.0000   1.0000   1.0000   1.0000   1.0000
     1.0000   1.0000   1.0000   1.0000   1.0000   1.0000   0.0000   0.0000
     0.0000   0.0000   0.0000   0.0000   0.0000   0.0000   0.0000   0.0000
     0.0000   0.0000   0.0000

          k = 0.1667 0.1667-0.1667 (   749 PWs)   bands (ev):

   -76.1926 -72.0744 -42.3907 -42.3695 -40.7697 -38.1075 -38.0844 -37.3821
    -5.7326  -4.8357   5.6214   6.1120   6.4443   7.3532   7.4692   9.1558
     9.7164  10.2911  10.3759  11.6642  11.9092  11.9121  15.3671  15.4897
    16.4035  16.5879  16.7222  20.7786  23.2914  26.7168  26.9011  29.6915
    30.9009  31.0759  33.4029

     occupation numbers 
     1.0000   1.0000   1.0000   1.0000   1.0000   1.0000   1.0000   1.0000
     1.0000   1.0000   1.0000   1.0000   1.0000   1.0000   1.0000   1.0000
     1.0000   1.0000   1.0000   1.0000   1.0000   1.0000   0.0000   0.0000
     0.0000   0.0000   0.0000   0.0000   0.0000   0.0000   0.0000   0.0000
     0.0000   0.0000   0.0000

          k = 0.4167 0.0833-0.2500 (   763 PWs)   bands (ev):

   -76.1927 -72.0749 -42.4320 -42.3976 -40.7706 -38.1511 -38.1112 -37.3846
    -5.3517  -4.8801   5.8845   6.4463   6.5724   7.0613   7.4070   8.6028
     9.2290  10.0604  10.4873  11.2721  11.5367  11.9209  15.3001  15.4736
    16.5505  16.7790  18.5816  21.8932  23.6805  24.7957  25.5013  28.3121
    29.5963  31.1421  32.5701

     occupation numbers 
     1.0000   1.0000   1.0000   1.0000   1.0000   1.0000   1.0000   1.0000
     1.0000   1.0000   1.0000   1.0000   1.0000   1.0000   1.0000   1.0000
     1.0000   1.0000   1.0000   1.0000   1.0000   1.0000   0.0000   0.0000
     0.0000   0.0000   0.0000   0.0000   0.0000   0.0000   0.0000   0.0000
     0.0000   0.0000   0.0000

          k =-0.8333 0.5000 0.1667 (   770 PWs)   bands (ev):

   -76.1921 -72.0737 -42.4578 -42.4181 -40.7681 -38.1771 -38.1311 -37.3850
    -5.0886  -4.7625   5.7462   6.1551   6.6136   7.1151   8.0356   8.4515
     8.8083  10.0581  10.2036  11.0963  11.2955  11.8353  15.3608  15.5099
    16.7779  16.9471  20.8406  22.6421  22.8474  24.3439  24.9148  25.1256
    29.3318  30.2427  32.6288

     occupation numbers 
     1.0000   1.0000   1.0000   1.0000   1.0000   1.0000   1.0000   1.0000
     1.0000   1.0000   1.0000   1.0000   1.0000   1.0000   1.0000   1.0000
     1.0000   1.0000   1.0000   1.0000   1.0000   1.0000   0.0000   0.0000
     0.0000   0.0000   0.0000   0.0000   0.0000   0.0000   0.0000   0.0000
     0.0000   0.0000   0.0000

          k =-0.5833 0.4167 0.0833 (   769 PWs)   bands (ev):

   -76.1926 -72.0737 -42.4542 -42.4172 -40.7714 -38.1739 -38.1309 -37.3880
    -5.0476  -4.8060   5.7550   6.1491   6.7241   7.0785   7.9091   8.4289
     8.9071  10.0274  10.1826  11.0605  11.4863  11.6625  15.4107  15.4873
    16.7693  16.9880  20.5815  22.4159  23.6968  23.9627  24.5061  25.7182
    28.8621  30.4769  33.4446

     occupation numbers 
     1.0000   1.0000   1.0000   1.0000   1.0000   1.0000   1.0000   1.0000
     1.0000   1.0000   1.0000   1.0000   1.0000   1.0000   1.0000   1.0000
     1.0000   1.0000   1.0000   1.0000   1.0000   1.0000   0.0000   0.0000
     0.0000   0.0000   0.0000   0.0000   0.0000   0.0000   0.0000   0.0000
     0.0000   0.0000   0.0000

          k =-0.3333 0.3333-0.0000 (   761 PWs)   bands (ev):

   -76.1929 -72.0740 -42.4341 -42.3916 -40.7675 -38.1532 -38.1056 -37.3829
    -5.3797  -4.8493   6.0720   6.2436   6.5529   7.1755   7.2134   8.6511
     9.2022  10.1352  10.7295  11.0005  11.6668  11.8192  15.4043  15.4414
    16.6212  16.7178  18.3402  22.7726  22.8139  24.8363  25.6180  28.1982
    29.3214  32.1255  32.5503

     occupation numbers 
     1.0000   1.0000   1.0000   1.0000   1.0000   1.0000   1.0000   1.0000
     1.0000   1.0000   1.0000   1.0000   1.0000   1.0000   1.0000   1.0000
     1.0000   1.0000   1.0000   1.0000   1.0000   1.0000   0.0000   0.0000
     0.0000   0.0000   0.0000   0.0000   0.0000   0.0000   0.0000   0.0000
     0.0000   0.0000   0.0000

          k = 0.3333 0.3333-0.3333 (   753 PWs)   bands (ev):

   -76.1864 -72.0691 -42.4342 -42.3662 -40.7496 -38.1544 -38.0831 -37.3635
    -5.1211  -4.9925   5.5233   6.6576   6.7437   7.1459   7.4780   8.4119
     9.2251   9.9670  10.0461  11.2997  11.9066  12.0875  15.3171  15.5071
    16.7435  17.0229  18.6753  21.1044  23.8482  24.5820  24.8691  29.6133
    29.9586  30.9305  31.4041

     occupation numbers 
     1.0000   1.0000   1.0000   1.0000   1.0000   1.0000   1.0000   1.0000
     1.0000   1.0000   1.0000   1.0000   1.0000   1.0000   1.0000   1.0000
     1.0000   1.0000   1.0000   1.0000   1.0000   1.0000   0.0000   0.0000
     0.0000   0.0000   0.0000   0.0000   0.0000   0.0000   0.0000   0.0000
     0.0000   0.0000   0.0000

          k =-0.9167 0.7500 0.0833 (   764 PWs)   bands (ev):

   -76.1883 -72.0737 -42.4482 -42.4109 -40.7577 -38.1671 -38.1243 -37.3715
    -4.9776  -4.8718   5.3615   6.4876   6.7794   7.0488   7.7881   8.4319
     9.3690   9.7044  10.1076  10.9955  11.5827  11.9966  15.3807  15.4817
    16.9275  17.0367  20.1594  21.3613  23.5342  24.0431  24.5530  26.9646
    29.7846  30.1376  32.2203

     occupation numbers 
     1.0000   1.0000   1.0000   1.0000   1.0000   1.0000   1.0000   1.0000
     1.0000   1.0000   1.0000   1.0000   1.0000   1.0000   1.0000   1.0000
     1.0000   1.0000   1.0000   1.0000   1.0000   1.0000   0.0000   0.0000
     0.0000   0.0000   0.0000   0.0000   0.0000   0.0000   0.0000   0.0000
     0.0000   0.0000   0.0000

          k =-0.6667 0.6667 0.0000 (   767 PWs)   bands (ev):

   -76.1884 -72.0752 -42.4491 -42.4411 -40.7569 -38.1621 -38.1545 -37.3733
    -4.8598  -4.8596   5.7921   6.2704   6.7690   6.8453   7.3939   8.7830
     9.3509   9.7592   9.9686  10.9684  11.5750  11.6270  15.4753  15.4859
    16.8461  17.0287  22.4418  22.5295  22.7065  23.4237  24.0687  24.7545
    29.4575  30.7452  32.7389

     occupation numbers 
     1.0000   1.0000   1.0000   1.0000   1.0000   1.0000   1.0000   1.0000
     1.0000   1.0000   1.0000   1.0000   1.0000   1.0000   1.0000   1.0000
     1.0000   1.0000   1.0000   1.0000   1.0000   1.0000   0.0000   0.0000
     0.0000   0.0000   0.0000   0.0000   0.0000   0.0000   0.0000   0.0000
     0.0000   0.0000   0.0000

          k =-0.5000-0.5000 0.5000 (   780 PWs)   bands (ev):

   -76.1962 -72.0792 -42.4820 -42.4211 -40.7878 -38.2010 -38.1350 -37.3976
    -5.0715  -4.7740   4.8709   6.6343   6.7018   7.5904   7.8279   8.0934
     9.8127   9.9201   9.9467  10.7699  11.5687  12.0868  15.4187  15.6118
    16.9974  17.2162  19.2698  20.3375  23.4001  24.0151  25.0678  28.7304
    29.0329  31.1742  31.2043

     occupation numbers 
     1.0000   1.0000   1.0000   1.0000   1.0000   1.0000   1.0000   1.0000
     1.0000   1.0000   1.0000   1.0000   1.0000   1.0000   1.0000   1.0000
     1.0000   1.0000   1.0000   1.0000   1.0000   1.0000   0.0000   0.0000
     0.0000   0.0000   0.0000   0.0000   0.0000   0.0000   0.0000   0.0000
     0.0000   0.0000   0.0000

          k = 0.0833 0.0833 0.0833 (   755 PWs)   bands (ev):

   -76.1983 -72.0790 -42.3747 -42.3747 -40.7872 -38.0891 -38.0891 -37.3973
    -5.9370  -4.8530   5.2039   6.2006   6.2006   7.6235   7.6236   9.0515
    10.6149  10.6149  10.6978  11.6880  11.6880  11.7445  15.3348  15.5016
    15.5016  16.6533  16.6533  19.3410  23.5400  28.3525  29.2627  29.2627
    31.0586  31.0586  32.2234

     occupation numbers 
     1.0000   1.0000   1.0000   1.0000   1.0000   1.0000   1.0000   1.0000
     1.0000   1.0000   1.0000   1.0000   1.0000   1.0000   1.0000   1.0000
     1.0000   1.0000   1.0000   1.0000   1.0000   1.0000   0.0000   0.0000
     0.0000   0.0000   0.0000   0.0000   0.0000   0.0000   0.0000   0.0000
     0.0000   0.0000   0.0000

          k = 0.3333 0.0000 0.0000 (   754 PWs)   bands (ev):

   -76.1933 -72.0751 -42.3983 -42.3717 -40.7754 -38.1140 -38.0874 -37.3874
    -5.6768  -4.9051   5.5933   6.4171   6.4338   7.3119   7.4526   9.0106
     9.3193  10.8859  10.9092  11.2622  11.2945  11.8457  15.2267  15.5384
    16.0417  16.8189  17.4570  20.4288  23.7322  26.5602  26.9764  30.2501
    30.6194  30.6715  31.7544

     occupation numbers 
     1.0000   1.0000   1.0000   1.0000   1.0000   1.0000   1.0000   1.0000
     1.0000   1.0000   1.0000   1.0000   1.0000   1.0000   1.0000   1.0000
     1.0000   1.0000   1.0000   1.0000   1.0000   1.0000   0.0000   0.0000
     0.0000   0.0000   0.0000   0.0000   0.0000   0.0000   0.0000   0.0000
     0.0000   0.0000   0.0000

          k =-0.9167 0.4167 0.4167 (   762 PWs)   bands (ev):

   -76.1907 -72.0711 -42.4490 -42.3736 -40.7711 -38.1689 -38.0912 -37.3853
    -5.3065  -4.7946   5.4824   6.4117   6.6942   7.4946   7.5803   8.4899
     9.0201  10.3340  10.4626  10.7850  11.5512  11.8397  15.2247  15.5783
    16.3255  17.0355  19.7044  21.5810  23.5820  24.8207  25.5395  26.7975
    30.1256  30.7898  31.1270

     occupation numbers 
     1.0000   1.0000   1.0000   1.0000   1.0000   1.0000   1.0000   1.0000
     1.0000   1.0000   1.0000   1.0000   1.0000   1.0000   1.0000   1.0000
     1.0000   1.0000   1.0000   1.0000   1.0000   1.0000   0.0000   0.0000
     0.0000   0.0000   0.0000   0.0000   0.0000   0.0000   0.0000   0.0000
     0.0000   0.0000   0.0000

          k =-0.6667 0.3333 0.3333 (   763 PWs)   bands (ev):

   -76.1916 -72.0698 -42.4597 -42.3829 -40.7656 -38.1832 -38.1014 -37.3821
    -5.1365  -4.7101   5.2464   6.4516   6.6507   7.5142   7.8287   8.3180
     9.1482   9.7981  10.0026  11.0727  11.7858  11.8638  15.3843  15.5468
    16.6912  17.1169  20.6070  21.0636  23.3001  24.0681  24.8861  26.7521
    29.4553  30.8498  31.4888

     occupation numbers 
     1.0000   1.0000   1.0000   1.0000   1.0000   1.0000   1.0000   1.0000
     1.0000   1.0000   1.0000   1.0000   1.0000   1.0000   1.0000   1.0000
     1.0000   1.0000   1.0000   1.0000   1.0000   1.0000   0.0000   0.0000
     0.0000   0.0000   0.0000   0.0000   0.0000   0.0000   0.0000   0.0000
     0.0000   0.0000   0.0000

          k =-0.4167 0.2500 0.2500 (   763 PWs)   bands (ev):

   -76.1932 -72.0729 -42.4467 -42.3854 -40.7724 -38.1664 -38.1011 -37.3877
    -5.2335  -4.8800   5.6897   6.5571   6.7298   7.0055   7.4797   8.5442
     8.9889  10.0201  10.1424  11.4056  11.7887  11.9652  15.3868  15.4840
    16.5459  16.9753  18.7435  22.0089  23.4848  24.3115  24.8091  29.3423
    29.6941  30.8204  31.7422

     occupation numbers 
     1.0000   1.0000   1.0000   1.0000   1.0000   1.0000   1.0000   1.0000
     1.0000   1.0000   1.0000   1.0000   1.0000   1.0000   1.0000   1.0000
     1.0000   1.0000   1.0000   1.0000   1.0000   1.0000   0.0000   0.0000
     0.0000   0.0000   0.0000   0.0000   0.0000   0.0000   0.0000   0.0000
     0.0000   0.0000   0.0000

          k = 0.2500 0.2500-0.0833 (   756 PWs)   bands (ev):

   -76.1937 -72.0764 -42.4000 -42.3763 -40.7828 -38.1158 -38.0908 -37.3929
    -5.5930  -5.0065   5.8790   6.2383   6.4771   7.3808   7.4672   8.8866
     9.1799  10.1753  10.5818  11.5991  11.8266  12.0942  15.2690  15.4662
    16.4179  16.6916  17.2868  20.1326  23.9950  26.3039  27.1884  29.8746
    29.9123  31.3422  32.9650

     occupation numbers 
     1.0000   1.0000   1.0000   1.0000   1.0000   1.0000   1.0000   1.0000
     1.0000   1.0000   1.0000   1.0000   1.0000   1.0000   1.0000   1.0000
     1.0000   1.0000   1.0000   1.0000   1.0000   1.0000   0.0000   0.0000
     0.0000   0.0000   0.0000   0.0000   0.0000   0.0000   0.0000   0.0000
     0.0000   0.0000   0.0000

          k =-1.0000 0.6667 0.3333 (   761 PWs)   bands (ev):

   -76.1896 -72.0737 -42.4195 -42.3935 -40.7707 -38.1386 -38.1073 -37.3825
    -5.2781  -4.9594   5.7025   6.6141   6.6591   6.9503   7.7405   8.5255
     9.2557   9.7232  10.5294  11.1553  11.6827  12.0304  15.1555  15.4936
    16.5080  16.8407  19.1937  20.9392  24.4965  24.9501  25.3676  27.9846
    30.0846  30.3013  32.2625

     occupation numbers 
     1.0000   1.0000   1.0000   1.0000   1.0000   1.0000   1.0000   1.0000
     1.0000   1.0000   1.0000   1.0000   1.0000   1.0000   1.0000   1.0000
     1.0000   1.0000   1.0000   1.0000   1.0000   1.0000   0.0000   0.0000
     0.0000   0.0000   0.0000   0.0000   0.0000   0.0000   0.0000   0.0000
     0.0000   0.0000   0.0000

          k =-0.7500 0.5833 0.2500 (   770 PWs)   bands (ev):

   -76.1910 -72.0749 -42.4583 -42.4153 -40.7715 -38.1764 -38.1288 -37.3852
    -5.0867  -4.7605   5.5170   6.3419   6.5970   7.1104   7.9774   8.4939
     8.9841  10.0439  10.1406  10.7768  11.5817  11.9677  15.3275  15.5076
    16.7924  17.0227  20.8378  21.5177  23.1129  24.2772  24.9449  25.7636
    29.7477  30.3023  32.0630

     occupation numbers 
     1.0000   1.0000   1.0000   1.0000   1.0000   1.0000   1.0000   1.0000
     1.0000   1.0000   1.0000   1.0000   1.0000   1.0000   1.0000   1.0000
     1.0000   1.0000   1.0000   1.0000   1.0000   1.0000   0.0000   0.0000
     0.0000   0.0000   0.0000   0.0000   0.0000   0.0000   0.0000   0.0000
     0.0000   0.0000   0.0000

          k =-0.5000 0.5000 0.1667 (   771 PWs)   bands (ev):

   -76.1928 -72.0755 -42.4608 -42.4228 -40.7700 -38.1795 -38.1353 -37.3850
    -4.9782  -4.8748   5.5229   6.3477   6.8448   7.0131   7.7726   8.4241
     9.1774   9.8941  10.0517  11.1221  11.4887  11.7930  15.4268  15.4671
    16.8266  17.0545  20.2547  21.8510  23.6837  24.0441  24.4321  26.4460
    29.1101  30.2939  33.0431

     occupation numbers 
     1.0000   1.0000   1.0000   1.0000   1.0000   1.0000   1.0000   1.0000
     1.0000   1.0000   1.0000   1.0000   1.0000   1.0000   1.0000   1.0000
     1.0000   1.0000   1.0000   1.0000   1.0000   1.0000   0.0000   0.0000
     0.0000   0.0000   0.0000   0.0000   0.0000   0.0000   0.0000   0.0000
     0.0000   0.0000   0.0000

          k =-0.5833-0.5833 0.7500 (   759 PWs)   bands (ev):

   -76.1874 -72.0720 -42.4344 -42.3758 -40.7674 -38.1543 -38.0926 -37.3776
    -5.1435  -4.9648   5.3737   6.5216   6.7243   7.4839   7.6430   8.3022
     9.3299   9.8508  10.2003  11.2342  11.6466  12.1066  15.2143  15.5608
    16.6500  17.0685  19.2058  20.4686  23.9295  24.8967  25.2257  28.5186
    29.6818  30.9910  31.1065

     occupation numbers 
     1.0000   1.0000   1.0000   1.0000   1.0000   1.0000   1.0000   1.0000
     1.0000   1.0000   1.0000   1.0000   1.0000   1.0000   1.0000   1.0000
     1.0000   1.0000   1.0000   1.0000   1.0000   1.0000   0.0000   0.0000
     0.0000   0.0000   0.0000   0.0000   0.0000   0.0000   0.0000   0.0000
     0.0000   0.0000   0.0000

          k =-0.3333-0.6667 0.6667 (   763 PWs)   bands (ev):

   -76.1875 -72.0734 -42.4465 -42.4090 -40.7578 -38.1653 -38.1227 -37.3709
    -5.0444  -4.8017   5.3601   6.4780   6.6639   7.0910   7.8806   8.4747
     9.2106   9.8750  10.1641  10.7491  11.7084  12.0502  15.3394  15.4937
    16.8671  17.0686  20.5136  21.0684  23.3637  24.0955  24.7987  26.6334
    29.6995  30.8909  31.4702

     occupation numbers 
     1.0000   1.0000   1.0000   1.0000   1.0000   1.0000   1.0000   1.0000
     1.0000   1.0000   1.0000   1.0000   1.0000   1.0000   1.0000   1.0000
     1.0000   1.0000   1.0000   1.0000   1.0000   1.0000   0.0000   0.0000
     0.0000   0.0000   0.0000   0.0000   0.0000   0.0000   0.0000   0.0000
     0.0000   0.0000   0.0000

          k =-0.0833-0.7500 0.5833 (   772 PWs)   bands (ev):

   -76.1907 -72.0772 -42.4513 -42.4454 -40.7740 -38.1643 -38.1584 -37.3883
    -4.8601  -4.8600   5.7941   6.2691   6.7975   6.8093   7.3987   8.7624
     9.4081   9.7041   9.9684  10.9717  11.5596  11.6240  15.4673  15.4895
    16.8455  17.0250  22.4205  22.5579  22.6562  23.3679  24.3784  24.4322
    29.9792  30.0408  33.3904

     occupation numbers 
     1.0000   1.0000   1.0000   1.0000   1.0000   1.0000   1.0000   1.0000
     1.0000   1.0000   1.0000   1.0000   1.0000   1.0000   1.0000   1.0000
     1.0000   1.0000   1.0000   1.0000   1.0000   1.0000   0.0000   0.0000
     0.0000   0.0000   0.0000   0.0000   0.0000   0.0000   0.0000   0.0000
     0.0000   0.0000   0.0000

          k =-0.4167-0.4167 0.5833 (   762 PWs)   bands (ev):

   -76.1890 -72.0710 -42.4614 -42.3838 -40.7581 -38.1828 -38.1016 -37.3719
    -5.0948  -4.7498   4.9843   6.6109   6.6447   7.6293   7.8282   8.1251
     9.6046   9.8897   9.9737  10.8439  11.6842  12.0151  15.4083  15.5928
    16.8695  17.1882  19.7282  20.5848  23.4009  24.0610  24.9830  28.1889
    28.9863  31.1908  31.3097

     occupation numbers 
     1.0000   1.0000   1.0000   1.0000   1.0000   1.0000   1.0000   1.0000
     1.0000   1.0000   1.0000   1.0000   1.0000   1.0000   1.0000   1.0000
     1.0000   1.0000   1.0000   1.0000   1.0000   1.0000   0.0000   0.0000
     0.0000   0.0000   0.0000   0.0000   0.0000   0.0000   0.0000   0.0000
     0.0000   0.0000   0.0000

          k = 0.1667 0.1667 0.1667 (   739 PWs)   bands (ev):

   -76.1904 -72.0718 -42.3507 -42.3507 -40.7657 -38.0677 -38.0677 -37.3790
    -5.7313  -5.1128   5.9355   6.2425   6.2425   7.6397   7.6397   8.2469
    10.2484  10.2484  10.4425  11.5870  12.1257  12.1257  15.4730  15.4730
    16.4930  16.5746  16.5746  18.8058  24.2829  26.8760  29.9282  29.9282
    31.0076  31.0076  33.6139

     occupation numbers 
     1.0000   1.0000   1.0000   1.0000   1.0000   1.0000   1.0000   1.0000
     1.0000   1.0000   1.0000   1.0000   1.0000   1.0000   1.0000   1.0000
     1.0000   1.0000   1.0000   1.0000   1.0000   1.0000   0.0000   0.0000
     0.0000   0.0000   0.0000   0.0000   0.0000   0.0000   0.0000   0.0000
     0.0000   0.0000   0.0000

          k =-1.0833 0.5833 0.5833 (   754 PWs)   bands (ev):

   -76.1916 -72.0745 -42.4018 -42.3630 -40.7765 -38.1174 -38.0795 -37.3881
    -5.4931  -5.1199   5.7539   6.4679   6.8560   7.1796   7.4498   8.5880
     9.0693  10.5041  10.8448  11.2173  11.6871  11.9334  15.1353  15.5222
    16.1663  16.7876  18.3243  19.4905  24.6952  26.1938  27.1718  29.5626
    30.4441  31.2277  31.3468

     occupation numbers 
     1.0000   1.0000   1.0000   1.0000   1.0000   1.0000   1.0000   1.0000
     1.0000   1.0000   1.0000   1.0000   1.0000   1.0000   1.0000   1.0000
     1.0000   1.0000   1.0000   1.0000   1.0000   1.0000   0.0000   0.0000
     0.0000   0.0000   0.0000   0.0000   0.0000   0.0000   0.0000   0.0000
     0.0000   0.0000   0.0000

          k =-0.8333 0.5000 0.5000 (   762 PWs)   bands (ev):

   -76.1891 -72.0723 -42.4436 -42.3784 -40.7710 -38.1628 -38.0949 -37.3830
    -5.2494  -4.8548   5.3571   6.4323   6.7032   7.4931   7.7940   8.3449
     9.2687  10.0061  10.3901  11.0439  11.4550  12.0082  15.1575  15.5945
    16.4623  17.0793  20.0052  20.3620  23.7570  25.4778  25.7498  26.5722
    29.9422  30.7658  30.8574

     occupation numbers 
     1.0000   1.0000   1.0000   1.0000   1.0000   1.0000   1.0000   1.0000
     1.0000   1.0000   1.0000   1.0000   1.0000   1.0000   1.0000   1.0000
     1.0000   1.0000   1.0000   1.0000   1.0000   1.0000   0.0000   0.0000
     0.0000   0.0000   0.0000   0.0000   0.0000   0.0000   0.0000   0.0000
     0.0000   0.0000   0.0000

          k =-0.6667-0.6667 1.0000 (   752 PWs)   bands (ev):

   -76.1907 -72.0742 -42.3943 -42.3701 -40.7678 -38.1106 -38.0859 -37.3802
    -5.3805  -5.2395   5.8612   6.4907   6.7713   7.3704   7.4563   8.2970
     9.1007  10.2267  10.7283  11.3989  11.8803  12.0021  15.1825  15.4864
    16.2924  16.7222  18.3482  19.2748  25.1065  25.6358  28.1006  28.4075
    30.1930  32.0652  32.1273

     occupation numbers 
     1.0000   1.0000   1.0000   1.0000   1.0000   1.0000   1.0000   1.0000
     1.0000   1.0000   1.0000   1.0000   1.0000   1.0000   1.0000   1.0000
     1.0000   1.0000   1.0000   1.0000   1.0000   1.0000   0.0000   0.0000
     0.0000   0.0000   0.0000   0.0000   0.0000   0.0000   0.0000   0.0000
     0.0000   0.0000   0.0000

          k =-0.4167-0.7500 0.9167 (   762 PWs)   bands (ev):

   -76.1887 -72.0739 -42.4201 -42.4011 -40.7625 -38.1387 -38.1139 -37.3752
    -5.2230  -5.0168   5.6358   6.6391   6.7618   6.8685   7.9694   8.4884
     9.1845   9.5455  10.7140  10.8831  11.8836  11.9908  15.1016  15.4947
    16.5039  16.8604  19.8350  20.1264  24.7086  24.9533  26.3943  26.6632
    30.2500  30.5431  32.0164

     occupation numbers 
     1.0000   1.0000   1.0000   1.0000   1.0000   1.0000   1.0000   1.0000
     1.0000   1.0000   1.0000   1.0000   1.0000   1.0000   1.0000   1.0000
     1.0000   1.0000   1.0000   1.0000   1.0000   1.0000   0.0000   0.0000
     0.0000   0.0000   0.0000   0.0000   0.0000   0.0000   0.0000   0.0000
     0.0000   0.0000   0.0000

          k =-0.2500-0.2500-0.2500 (   748 PWs)   bands (ev):

   -76.1945 -72.0754 -42.3610 -42.3610 -40.7896 -38.0775 -38.0775 -37.4005
    -5.4582  -5.4138   6.2587   6.2587   6.7007   7.3556   7.6474   7.6474
    10.0990  10.0990  10.3776  11.4917  12.2799  12.2799  15.4498  15.4498
    16.5285  16.5285  17.5227  17.9117  25.4143  25.4894  30.4938  30.4938
    30.7121  30.7121  34.2118

     occupation numbers 
     1.0000   1.0000   1.0000   1.0000   1.0000   1.0000   1.0000   1.0000
     1.0000   1.0000   1.0000   1.0000   1.0000   1.0000   1.0000   1.0000
     1.0000   1.0000   1.0000   1.0000   1.0000   1.0000   0.0000   0.0000
     0.0000   0.0000   0.0000   0.0000   0.0000   0.0000   0.0000   0.0000
     0.0000   0.0000   0.0000

 ------ SPIN DOWN ----------


          k = 0.0000 0.0000 0.0000 (   731 PWs)   bands (ev):

   -76.1889 -72.0704 -42.3477 -42.3477 -40.7560 -38.0624 -38.0624 -37.3630
    -6.0017  -4.7548   4.9414   6.1814   6.1814   7.6164   7.6164   9.2925
    11.0699  11.1278  11.1278  11.2000  11.2000  11.8042  14.8400  15.5149
    15.5149  16.6953  16.6953  19.4658  23.2875  29.0013  29.0013  29.3444
    31.0445  31.0446  31.1866

     occupation numbers 
     1.0000   1.0000   1.0000   1.0000   1.0000   1.0000   1.0000   1.0000
     1.0000   1.0000   1.0000   1.0000   1.0000   1.0000   1.0000   1.0000
     1.0000   1.0000   1.0000   1.0000   1.0000   1.0000   0.0000   0.0000
     0.0000   0.0000   0.0000   0.0000   0.0000   0.0000   0.0000   0.0000
     0.0000   0.0000   0.0000

          k = 0.2500-0.0833-0.0833 (   751 PWs)   bands (ev):

   -76.1938 -72.0751 -42.3879 -42.3728 -40.7759 -38.1054 -38.0879 -37.3882
    -5.7629  -4.7973   5.4850   6.2001   6.4229   7.3486   7.4616   9.1123
     9.7993  10.4742  10.7281  11.5050  11.6602  11.7611  15.4027  15.5254
    16.0009  16.7858  16.8645  20.9158  23.1789  26.5297  27.1866  29.7566
    30.6884  30.8778  33.8099

     occupation numbers 
     1.0000   1.0000   1.0000   1.0000   1.0000   1.0000   1.0000   1.0000
     1.0000   1.0000   1.0000   1.0000   1.0000   1.0000   1.0000   1.0000
     1.0000   1.0000   1.0000   1.0000   1.0000   1.0000   0.0000   0.0000
     0.0000   0.0000   0.0000   0.0000   0.0000   0.0000   0.0000   0.0000
     0.0000   0.0000   0.0000

          k = 0.5000-0.1667-0.1667 (   758 PWs)   bands (ev):

   -76.1916 -72.0705 -42.4302 -42.3771 -40.7734 -38.1525 -38.0945 -37.3891
    -5.3023  -4.8044   5.6681   6.4099   6.7089   7.2765   7.4887   8.6987
     8.7624  10.1507  10.3581  11.2647  11.6155  11.8199  15.3555  15.5244
    16.3300  16.9844  19.2247  22.7026  23.2081  23.9649  25.1931  28.0847
    29.9533  30.7864  32.3453

     occupation numbers 
     1.0000   1.0000   1.0000   1.0000   1.0000   1.0000   1.0000   1.0000
     1.0000   1.0000   1.0000   1.0000   1.0000   1.0000   1.0000   1.0000
     1.0000   1.0000   1.0000   1.0000   1.0000   1.0000   0.0000   0.0000
     0.0000   0.0000   0.0000   0.0000   0.0000   0.0000   0.0000   0.0000
     0.0000   0.0000   0.0000

          k =-0.7500 0.2500 0.2500 (   764 PWs)   bands (ev):

   -76.1927 -72.0691 -42.4515 -42.3807 -40.7795 -38.1766 -38.1000 -37.3964
    -5.1548  -4.6922   5.4048   6.3887   6.6535   7.4028   7.8291   8.6823
     8.7007   9.7470  10.0203  11.4016  11.4695  11.9463  15.3685  15.5210
    16.6247  17.0815  21.0696  21.4214  23.2120  23.8305  25.2631  25.7147
    29.8866  30.5211  32.3524

     occupation numbers 
     1.0000   1.0000   1.0000   1.0000   1.0000   1.0000   1.0000   1.0000
     1.0000   1.0000   1.0000   1.0000   1.0000   1.0000   1.0000   1.0000
     1.0000   1.0000   1.0000   1.0000   1.0000   1.0000   0.0000   0.0000
     0.0000   0.0000   0.0000   0.0000   0.0000   0.0000   0.0000   0.0000
     0.0000   0.0000   0.0000

          k = 0.1667 0.1667-0.1667 (   749 PWs)   bands (ev):

   -76.1927 -72.0745 -42.3906 -42.3694 -40.7699 -38.1077 -38.0846 -37.3822
    -5.7328  -4.8360   5.6212   6.1119   6.4443   7.3532   7.4692   9.1556
     9.7162  10.2910  10.3758  11.6639  11.9090  11.9118  15.3669  15.4896
    16.4035  16.5878  16.7223  20.7786  23.2913  26.7168  26.9011  29.6915
    30.9010  31.0760  33.4029

     occupation numbers 
     1.0000   1.0000   1.0000   1.0000   1.0000   1.0000   1.0000   1.0000
     1.0000   1.0000   1.0000   1.0000   1.0000   1.0000   1.0000   1.0000
     1.0000   1.0000   1.0000   1.0000   1.0000   1.0000   0.0000   0.0000
     0.0000   0.0000   0.0000   0.0000   0.0000   0.0000   0.0000   0.0000
     0.0000   0.0000   0.0000

          k = 0.4167 0.0833-0.2500 (   763 PWs)   bands (ev):

   -76.1927 -72.0751 -42.4320 -42.3976 -40.7708 -38.1512 -38.1114 -37.3846
    -5.3519  -4.8803   5.8845   6.4462   6.5723   7.0612   7.4069   8.6026
     9.2288  10.0602  10.4871  11.2719  11.5364  11.9207  15.3000  15.4734
    16.5505  16.7790  18.5815  21.8931  23.6805  24.7957  25.5013  28.3121
    29.5963  31.1421  32.5701

     occupation numbers 
     1.0000   1.0000   1.0000   1.0000   1.0000   1.0000   1.0000   1.0000
     1.0000   1.0000   1.0000   1.0000   1.0000   1.0000   1.0000   1.0000
     1.0000   1.0000   1.0000   1.0000   1.0000   1.0000   0.0000   0.0000
     0.0000   0.0000   0.0000   0.0000   0.0000   0.0000   0.0000   0.0000
     0.0000   0.0000   0.0000

          k =-0.8333 0.5000 0.1667 (   770 PWs)   bands (ev):

   -76.1921 -72.0738 -42.4577 -42.4181 -40.7683 -38.1773 -38.1313 -37.3851
    -5.0888  -4.7627   5.7462   6.1550   6.6135   7.1150   8.0355   8.4514
     8.8081  10.0578  10.2035  11.0960  11.2953  11.8350  15.3607  15.5097
    16.7780  16.9471  20.8405  22.6421  22.8474  24.3440  24.9148  25.1256
    29.3318  30.2427  32.6289

     occupation numbers 
     1.0000   1.0000   1.0000   1.0000   1.0000   1.0000   1.0000   1.0000
     1.0000   1.0000   1.0000   1.0000   1.0000   1.0000   1.0000   1.0000
     1.0000   1.0000   1.0000   1.0000   1.0000   1.0000   0.0000   0.0000
     0.0000   0.0000   0.0000   0.0000   0.0000   0.0000   0.0000   0.0000
     0.0000   0.0000   0.0000

          k =-0.5833 0.4167 0.0833 (   769 PWs)   bands (ev):

   -76.1926 -72.0739 -42.4542 -42.4172 -40.7716 -38.1741 -38.1311 -37.3881
    -5.0478  -4.8062   5.7550   6.1490   6.7240   7.0784   7.9090   8.4288
     8.9070  10.0272  10.1825  11.0603  11.4860  11.6623  15.4105  15.4871
    16.7693  16.9880  20.5815  22.4159  23.6968  23.9627  24.5061  25.7182
    28.8622  30.4769  33.4446

     occupation numbers 
     1.0000   1.0000   1.0000   1.0000   1.0000   1.0000   1.0000   1.0000
     1.0000   1.0000   1.0000   1.0000   1.0000   1.0000   1.0000   1.0000
     1.0000   1.0000   1.0000   1.0000   1.0000   1.0000   0.0000   0.0000
     0.0000   0.0000   0.0000   0.0000   0.0000   0.0000   0.0000   0.0000
     0.0000   0.0000   0.0000

          k =-0.3333 0.3333-0.0000 (   761 PWs)   bands (ev):

   -76.1929 -72.0742 -42.4341 -42.3916 -40.7677 -38.1533 -38.1058 -37.3829
    -5.3799  -4.8495   6.0720   6.2434   6.5528   7.1754   7.2134   8.6510
     9.2020  10.1350  10.7294  11.0004  11.6664  11.8191  15.4042  15.4412
    16.6212  16.7178  18.3401  22.7726  22.8138  24.8363  25.6180  28.1983
    29.3214  32.1255  32.5504

     occupation numbers 
     1.0000   1.0000   1.0000   1.0000   1.0000   1.0000   1.0000   1.0000
     1.0000   1.0000   1.0000   1.0000   1.0000   1.0000   1.0000   1.0000
     1.0000   1.0000   1.0000   1.0000   1.0000   1.0000   0.0000   0.0000
     0.0000   0.0000   0.0000   0.0000   0.0000   0.0000   0.0000   0.0000
     0.0000   0.0000   0.0000

          k = 0.3333 0.3333-0.3333 (   753 PWs)   bands (ev):

   -76.1865 -72.0693 -42.4342 -42.3662 -40.7498 -38.1546 -38.0832 -37.3635
    -5.1213  -4.9927   5.5233   6.6575   6.7436   7.1457   7.4781   8.4118
     9.2249   9.9668  10.0459  11.2994  11.9064  12.0873  15.3170  15.5069
    16.7434  17.0229  18.6753  21.1044  23.8482  24.5820  24.8691  29.6134
    29.9587  30.9305  31.4041

     occupation numbers 
     1.0000   1.0000   1.0000   1.0000   1.0000   1.0000   1.0000   1.0000
     1.0000   1.0000   1.0000   1.0000   1.0000   1.0000   1.0000   1.0000
     1.0000   1.0000   1.0000   1.0000   1.0000   1.0000   0.0000   0.0000
     0.0000   0.0000   0.0000   0.0000   0.0000   0.0000   0.0000   0.0000
     0.0000   0.0000   0.0000

          k =-0.9167 0.7500 0.0833 (   764 PWs)   bands (ev):

   -76.1884 -72.0738 -42.4482 -42.4108 -40.7579 -38.1672 -38.1245 -37.3716
    -4.9778  -4.8720   5.3615   6.4876   6.7792   7.0487   7.7880   8.4318
     9.3689   9.7042  10.1074  10.9952  11.5826  11.9963  15.3806  15.4816
    16.9275  17.0367  20.1594  21.3613  23.5342  24.0431  24.5530  26.9647
    29.7846  30.1376  32.2203

     occupation numbers 
     1.0000   1.0000   1.0000   1.0000   1.0000   1.0000   1.0000   1.0000
     1.0000   1.0000   1.0000   1.0000   1.0000   1.0000   1.0000   1.0000
     1.0000   1.0000   1.0000   1.0000   1.0000   1.0000   0.0000   0.0000
     0.0000   0.0000   0.0000   0.0000   0.0000   0.0000   0.0000   0.0000
     0.0000   0.0000   0.0000

          k =-0.6667 0.6667 0.0000 (   767 PWs)   bands (ev):

   -76.1884 -72.0754 -42.4491 -42.4410 -40.7571 -38.1622 -38.1547 -37.3734
    -4.8600  -4.8598   5.7921   6.2705   6.7689   6.8452   7.3938   8.7828
     9.3508   9.7591   9.9683  10.9682  11.5748  11.6266  15.4751  15.4857
    16.8461  17.0287  22.4417  22.5295  22.7065  23.4236  24.0687  24.7545
    29.4575  30.7453  32.7389

     occupation numbers 
     1.0000   1.0000   1.0000   1.0000   1.0000   1.0000   1.0000   1.0000
     1.0000   1.0000   1.0000   1.0000   1.0000   1.0000   1.0000   1.0000
     1.0000   1.0000   1.0000   1.0000   1.0000   1.0000   0.0000   0.0000
     0.0000   0.0000   0.0000   0.0000   0.0000   0.0000   0.0000   0.0000
     0.0000   0.0000   0.0000

          k =-0.5000-0.5000 0.5000 (   780 PWs)   bands (ev):

   -76.1963 -72.0794 -42.4820 -42.4211 -40.7879 -38.2012 -38.1352 -37.3976
    -5.0718  -4.7742   4.8709   6.6342   6.7017   7.5903   7.8280   8.0933
     9.8125   9.9199   9.9465  10.7695  11.5686  12.0865  15.4186  15.6116
    16.9973  17.2162  19.2699  20.3375  23.4000  24.0150  25.0679  28.7305
    29.0330  31.1742  31.2043

     occupation numbers 
     1.0000   1.0000   1.0000   1.0000   1.0000   1.0000   1.0000   1.0000
     1.0000   1.0000   1.0000   1.0000   1.0000   1.0000   1.0000   1.0000
     1.0000   1.0000   1.0000   1.0000   1.0000   1.0000   0.0000   0.0000
     0.0000   0.0000   0.0000   0.0000   0.0000   0.0000   0.0000   0.0000
     0.0000   0.0000   0.0000

          k = 0.0833 0.0833 0.0833 (   755 PWs)   bands (ev):

   -76.1983 -72.0792 -42.3747 -42.3747 -40.7873 -38.0893 -38.0893 -37.3974
    -5.9372  -4.8532   5.2037   6.2005   6.2005   7.6236   7.6236   9.0512
    10.6147  10.6147  10.6975  11.6878  11.6878  11.7441  15.3348  15.5014
    15.5014  16.6533  16.6533  19.3410  23.5399  28.3526  29.2628  29.2628
    31.0587  31.0587  32.2234

     occupation numbers 
     1.0000   1.0000   1.0000   1.0000   1.0000   1.0000   1.0000   1.0000
     1.0000   1.0000   1.0000   1.0000   1.0000   1.0000   1.0000   1.0000
     1.0000   1.0000   1.0000   1.0000   1.0000   1.0000   0.0000   0.0000
     0.0000   0.0000   0.0000   0.0000   0.0000   0.0000   0.0000   0.0000
     0.0000   0.0000   0.0000

          k = 0.3333 0.0000 0.0000 (   754 PWs)   bands (ev):

   -76.1933 -72.0753 -42.3983 -42.3717 -40.7756 -38.1142 -38.0876 -37.3875
    -5.6770  -4.9054   5.5932   6.4170   6.4337   7.3119   7.4527   9.0103
     9.3191  10.8857  10.9090  11.2619  11.2944  11.8453  15.2266  15.5382
    16.0417  16.8189  17.4569  20.4287  23.7322  26.5603  26.9764  30.2501
    30.6194  30.6715  31.7545

     occupation numbers 
     1.0000   1.0000   1.0000   1.0000   1.0000   1.0000   1.0000   1.0000
     1.0000   1.0000   1.0000   1.0000   1.0000   1.0000   1.0000   1.0000
     1.0000   1.0000   1.0000   1.0000   1.0000   1.0000   0.0000   0.0000
     0.0000   0.0000   0.0000   0.0000   0.0000   0.0000   0.0000   0.0000
     0.0000   0.0000   0.0000

          k =-0.9167 0.4167 0.4167 (   762 PWs)   bands (ev):

   -76.1908 -72.0713 -42.4489 -42.3735 -40.7713 -38.1691 -38.0913 -37.3854
    -5.3067  -4.7949   5.4823   6.4116   6.6941   7.4947   7.5801   8.4898
     9.0199  10.3338  10.4624  10.7848  11.5511  11.8393  15.2246  15.5781
    16.3255  17.0355  19.7044  21.5809  23.5820  24.8208  25.5395  26.7976
    30.1257  30.7898  31.1270

     occupation numbers 
     1.0000   1.0000   1.0000   1.0000   1.0000   1.0000   1.0000   1.0000
     1.0000   1.0000   1.0000   1.0000   1.0000   1.0000   1.0000   1.0000
     1.0000   1.0000   1.0000   1.0000   1.0000   1.0000   0.0000   0.0000
     0.0000   0.0000   0.0000   0.0000   0.0000   0.0000   0.0000   0.0000
     0.0000   0.0000   0.0000

          k =-0.6667 0.3333 0.3333 (   763 PWs)   bands (ev):

   -76.1916 -72.0699 -42.4597 -42.3829 -40.7657 -38.1834 -38.1016 -37.3822
    -5.1367  -4.7103   5.2464   6.4514   6.6506   7.5141   7.8288   8.3179
     9.1480   9.7980  10.0024  11.0724  11.7855  11.8636  15.3842  15.5466
    16.6912  17.1169  20.6070  21.0636  23.3001  24.0680  24.8861  26.7522
    29.4554  30.8498  31.4888

     occupation numbers 
     1.0000   1.0000   1.0000   1.0000   1.0000   1.0000   1.0000   1.0000
     1.0000   1.0000   1.0000   1.0000   1.0000   1.0000   1.0000   1.0000
     1.0000   1.0000   1.0000   1.0000   1.0000   1.0000   0.0000   0.0000
     0.0000   0.0000   0.0000   0.0000   0.0000   0.0000   0.0000   0.0000
     0.0000   0.0000   0.0000

          k =-0.4167 0.2500 0.2500 (   763 PWs)   bands (ev):

   -76.1932 -72.0731 -42.4467 -42.3854 -40.7725 -38.1666 -38.1013 -37.3878
    -5.2337  -4.8802   5.6897   6.5570   6.7298   7.0053   7.4797   8.5440
     8.9888  10.0200  10.1422  11.4052  11.7884  11.9650  15.3867  15.4839
    16.5459  16.9753  18.7435  22.0089  23.4848  24.3115  24.8090  29.3424
    29.6942  30.8204  31.7422

     occupation numbers 
     1.0000   1.0000   1.0000   1.0000   1.0000   1.0000   1.0000   1.0000
     1.0000   1.0000   1.0000   1.0000   1.0000   1.0000   1.0000   1.0000
     1.0000   1.0000   1.0000   1.0000   1.0000   1.0000   0.0000   0.0000
     0.0000   0.0000   0.0000   0.0000   0.0000   0.0000   0.0000   0.0000
     0.0000   0.0000   0.0000

          k = 0.2500 0.2500-0.0833 (   756 PWs)   bands (ev):

   -76.1938 -72.0765 -42.3999 -42.3762 -40.7830 -38.1160 -38.0910 -37.3930
    -5.5932  -5.0067   5.8789   6.2381   6.4770   7.3808   7.4673   8.8863
     9.1797  10.1751  10.5817  11.5989  11.8263  12.0940  15.2689  15.4661
    16.4179  16.6916  17.2868  20.1325  23.9949  26.3039  27.1885  29.8747
    29.9123  31.3423  32.9650

     occupation numbers 
     1.0000   1.0000   1.0000   1.0000   1.0000   1.0000   1.0000   1.0000
     1.0000   1.0000   1.0000   1.0000   1.0000   1.0000   1.0000   1.0000
     1.0000   1.0000   1.0000   1.0000   1.0000   1.0000   0.0000   0.0000
     0.0000   0.0000   0.0000   0.0000   0.0000   0.0000   0.0000   0.0000
     0.0000   0.0000   0.0000

          k =-1.0000 0.6667 0.3333 (   761 PWs)   bands (ev):

   -76.1897 -72.0738 -42.4195 -42.3935 -40.7709 -38.1388 -38.1075 -37.3825
    -5.2783  -4.9597   5.7024   6.6140   6.6590   6.9502   7.7403   8.5254
     9.2555   9.7231  10.5292  11.1552  11.6824  12.0301  15.1554  15.4934
    16.5080  16.8407  19.1936  20.9391  24.4965  24.9501  25.3676  27.9847
    30.0847  30.3013  32.2626

     occupation numbers 
     1.0000   1.0000   1.0000   1.0000   1.0000   1.0000   1.0000   1.0000
     1.0000   1.0000   1.0000   1.0000   1.0000   1.0000   1.0000   1.0000
     1.0000   1.0000   1.0000   1.0000   1.0000   1.0000   0.0000   0.0000
     0.0000   0.0000   0.0000   0.0000   0.0000   0.0000   0.0000   0.0000
     0.0000   0.0000   0.0000

          k =-0.7500 0.5833 0.2500 (   770 PWs)   bands (ev):

   -76.1911 -72.0750 -42.4583 -42.4153 -40.7717 -38.1766 -38.1290 -37.3853
    -5.0869  -4.7607   5.5170   6.3418   6.5968   7.1103   7.9773   8.4938
     8.9840  10.0437  10.1404  10.7765  11.5815  11.9674  15.3273  15.5074
    16.7924  17.0227  20.8378  21.5177  23.1129  24.2772  24.9449  25.7637
    29.7477  30.3023  32.0630

     occupation numbers 
     1.0000   1.0000   1.0000   1.0000   1.0000   1.0000   1.0000   1.0000
     1.0000   1.0000   1.0000   1.0000   1.0000   1.0000   1.0000   1.0000
     1.0000   1.0000   1.0000   1.0000   1.0000   1.0000   0.0000   0.0000
     0.0000   0.0000   0.0000   0.0000   0.0000   0.0000   0.0000   0.0000
     0.0000   0.0000   0.0000

          k =-0.5000 0.5000 0.1667 (   771 PWs)   bands (ev):

   -76.1928 -72.0757 -42.4608 -42.4228 -40.7701 -38.1796 -38.1355 -37.3851
    -4.9784  -4.8751   5.5229   6.3476   6.8447   7.0131   7.7725   8.4240
     9.1772   9.8939  10.0515  11.1219  11.4886  11.7927  15.4266  15.4669
    16.8266  17.0545  20.2547  21.8510  23.6837  24.0441  24.4321  26.4461
    29.1102  30.2939  33.0431

     occupation numbers 
     1.0000   1.0000   1.0000   1.0000   1.0000   1.0000   1.0000   1.0000
     1.0000   1.0000   1.0000   1.0000   1.0000   1.0000   1.0000   1.0000
     1.0000   1.0000   1.0000   1.0000   1.0000   1.0000   0.0000   0.0000
     0.0000   0.0000   0.0000   0.0000   0.0000   0.0000   0.0000   0.0000
     0.0000   0.0000   0.0000

          k =-0.5833-0.5833 0.7500 (   759 PWs)   bands (ev):

   -76.1875 -72.0722 -42.4343 -42.3758 -40.7676 -38.1545 -38.0928 -37.3776
    -5.1438  -4.9650   5.3737   6.5215   6.7242   7.4839   7.6428   8.3021
     9.3297   9.8505  10.2001  11.2339  11.6465  12.1063  15.2142  15.5606
    16.6500  17.0685  19.2058  20.4686  23.9295  24.8967  25.2257  28.5187
    29.6819  30.9910  31.1065

     occupation numbers 
     1.0000   1.0000   1.0000   1.0000   1.0000   1.0000   1.0000   1.0000
     1.0000   1.0000   1.0000   1.0000   1.0000   1.0000   1.0000   1.0000
     1.0000   1.0000   1.0000   1.0000   1.0000   1.0000   0.0000   0.0000
     0.0000   0.0000   0.0000   0.0000   0.0000   0.0000   0.0000   0.0000
     0.0000   0.0000   0.0000

          k =-0.3333-0.6667 0.6667 (   763 PWs)   bands (ev):

   -76.1875 -72.0735 -42.4465 -42.4090 -40.7579 -38.1655 -38.1229 -37.3710
    -5.0446  -4.8019   5.3601   6.4779   6.6638   7.0909   7.8805   8.4746
     9.2104   9.8748  10.1638  10.7487  11.7082  12.0499  15.3392  15.4936
    16.8671  17.0686  20.5137  21.0684  23.3637  24.0955  24.7987  26.6334
    29.6995  30.8910  31.4702

     occupation numbers 
     1.0000   1.0000   1.0000   1.0000   1.0000   1.0000   1.0000   1.0000
     1.0000   1.0000   1.0000   1.0000   1.0000   1.0000   1.0000   1.0000
     1.0000   1.0000   1.0000   1.0000   1.0000   1.0000   0.0000   0.0000
     0.0000   0.0000   0.0000   0.0000   0.0000   0.0000   0.0000   0.0000
     0.0000   0.0000   0.0000

          k =-0.0833-0.7500 0.5833 (   772 PWs)   bands (ev):

   -76.1907 -72.0773 -42.4512 -42.4454 -40.7741 -38.1644 -38.1586 -37.3884
    -4.8603  -4.8602   5.7941   6.2691   6.7974   6.8092   7.3986   8.7623
     9.4080   9.7040   9.9682  10.9715  11.5595  11.6237  15.4671  15.4894
    16.8456  17.0250  22.4205  22.5579  22.6562  23.3678  24.3784  24.4321
    29.9792  30.0409  33.3904

     occupation numbers 
     1.0000   1.0000   1.0000   1.0000   1.0000   1.0000   1.0000   1.0000
     1.0000   1.0000   1.0000   1.0000   1.0000   1.0000   1.0000   1.0000
     1.0000   1.0000   1.0000   1.0000   1.0000   1.0000   0.0000   0.0000
     0.0000   0.0000   0.0000   0.0000   0.0000   0.0000   0.0000   0.0000
     0.0000   0.0000   0.0000

          k =-0.4167-0.4167 0.5833 (   762 PWs)   bands (ev):

   -76.1891 -72.0712 -42.4614 -42.3838 -40.7583 -38.1830 -38.1017 -37.3720
    -5.0951  -4.7500   4.9843   6.6108   6.6446   7.6292   7.8282   8.1250
     9.6044   9.8896   9.9735  10.8435  11.6840  12.0148  15.4081  15.5926
    16.8695  17.1882  19.7282  20.5849  23.4008  24.0609  24.9831  28.1890
    28.9864  31.1908  31.3097

     occupation numbers 
     1.0000   1.0000   1.0000   1.0000   1.0000   1.0000   1.0000   1.0000
     1.0000   1.0000   1.0000   1.0000   1.0000   1.0000   1.0000   1.0000
     1.0000   1.0000   1.0000   1.0000   1.0000   1.0000   0.0000   0.0000
     0.0000   0.0000   0.0000   0.0000   0.0000   0.0000   0.0000   0.0000
     0.0000   0.0000   0.0000

          k = 0.1667 0.1667 0.1667 (   739 PWs)   bands (ev):

   -76.1905 -72.0720 -42.3507 -42.3507 -40.7659 -38.0679 -38.0679 -37.3790
    -5.7315  -5.1131   5.9353   6.2425   6.2425   7.6397   7.6397   8.2466
    10.2483  10.2483  10.4422  11.5866  12.1255  12.1255  15.4729  15.4729
    16.4929  16.5747  16.5747  18.8058  24.2829  26.8760  29.9282  29.9282
    31.0077  31.0077  33.6140

     occupation numbers 
     1.0000   1.0000   1.0000   1.0000   1.0000   1.0000   1.0000   1.0000
     1.0000   1.0000   1.0000   1.0000   1.0000   1.0000   1.0000   1.0000
     1.0000   1.0000   1.0000   1.0000   1.0000   1.0000   0.0000   0.0000
     0.0000   0.0000   0.0000   0.0000   0.0000   0.0000   0.0000   0.0000
     0.0000   0.0000   0.0000

          k =-1.0833 0.5833 0.5833 (   754 PWs)   bands (ev):

   -76.1917 -72.0746 -42.4018 -42.3630 -40.7767 -38.1175 -38.0797 -37.3882
    -5.4933  -5.1201   5.7538   6.4679   6.8558   7.1796   7.4498   8.5877
     9.0691  10.5039  10.8447  11.2170  11.6870  11.9331  15.1351  15.5221
    16.1663  16.7876  18.3242  19.4904  24.6952  26.1938  27.1719  29.5626
    30.4441  31.2278  31.3468

     occupation numbers 
     1.0000   1.0000   1.0000   1.0000   1.0000   1.0000   1.0000   1.0000
     1.0000   1.0000   1.0000   1.0000   1.0000   1.0000   1.0000   1.0000
     1.0000   1.0000   1.0000   1.0000   1.0000   1.0000   0.0000   0.0000
     0.0000   0.0000   0.0000   0.0000   0.0000   0.0000   0.0000   0.0000
     0.0000   0.0000   0.0000

          k =-0.8333 0.5000 0.5000 (   762 PWs)   bands (ev):

   -76.1892 -72.0724 -42.4436 -42.3783 -40.7712 -38.1629 -38.0951 -37.3831
    -5.2497  -4.8550   5.3570   6.4322   6.7031   7.4931   7.7939   8.3448
     9.2685  10.0059  10.3900  11.0436  11.4549  12.0079  15.1573  15.5943
    16.4623  17.0793  20.0051  20.3619  23.7570  25.4779  25.7498  26.5723
    29.9423  30.7658  30.8574

     occupation numbers 
     1.0000   1.0000   1.0000   1.0000   1.0000   1.0000   1.0000   1.0000
     1.0000   1.0000   1.0000   1.0000   1.0000   1.0000   1.0000   1.0000
     1.0000   1.0000   1.0000   1.0000   1.0000   1.0000   0.0000   0.0000
     0.0000   0.0000   0.0000   0.0000   0.0000   0.0000   0.0000   0.0000
     0.0000   0.0000   0.0000

          k =-0.6667-0.6667 1.0000 (   752 PWs)   bands (ev):

   -76.1908 -72.0744 -42.3943 -42.3701 -40.7679 -38.1107 -38.0861 -37.3803
    -5.3808  -5.2397   5.8611   6.4906   6.7712   7.3703   7.4563   8.2967
     9.1005  10.2265  10.7281  11.3987  11.8800  12.0019  15.1824  15.4862
    16.2925  16.7222  18.3481  19.2747  25.1065  25.6358  28.1007  28.4076
    30.1931  32.0652  32.1274

     occupation numbers 
     1.0000   1.0000   1.0000   1.0000   1.0000   1.0000   1.0000   1.0000
     1.0000   1.0000   1.0000   1.0000   1.0000   1.0000   1.0000   1.0000
     1.0000   1.0000   1.0000   1.0000   1.0000   1.0000   0.0000   0.0000
     0.0000   0.0000   0.0000   0.0000   0.0000   0.0000   0.0000   0.0000
     0.0000   0.0000   0.0000

          k =-0.4167-0.7500 0.9167 (   762 PWs)   bands (ev):

   -76.1888 -72.0740 -42.4201 -42.4011 -40.7627 -38.1389 -38.1141 -37.3753
    -5.2232  -5.0171   5.6358   6.6390   6.7617   6.8684   7.9692   8.4883
     9.1843   9.5454  10.7138  10.8828  11.8834  11.9904  15.1015  15.4946
    16.5039  16.8605  19.8350  20.1263  24.7087  24.9533  26.3944  26.6632
    30.2501  30.5431  32.0164

     occupation numbers 
     1.0000   1.0000   1.0000   1.0000   1.0000   1.0000   1.0000   1.0000
     1.0000   1.0000   1.0000   1.0000   1.0000   1.0000   1.0000   1.0000
     1.0000   1.0000   1.0000   1.0000   1.0000   1.0000   0.0000   0.0000
     0.0000   0.0000   0.0000   0.0000   0.0000   0.0000   0.0000   0.0000
     0.0000   0.0000   0.0000

          k =-0.2500-0.2500-0.2500 (   748 PWs)   bands (ev):

   -76.1945 -72.0755 -42.3610 -42.3610 -40.7898 -38.0777 -38.0777 -37.4005
    -5.4584  -5.4140   6.2586   6.2586   6.7005   7.3554   7.6474   7.6475
    10.0988  10.0988  10.3773  11.4913  12.2797  12.2797  15.4497  15.4497
    16.5285  16.5285  17.5227  17.9115  25.4142  25.4894  30.4938  30.4938
    30.7122  30.7122  34.2119

     occupation numbers 
     1.0000   1.0000   1.0000   1.0000   1.0000   1.0000   1.0000   1.0000
     1.0000   1.0000   1.0000   1.0000   1.0000   1.0000   1.0000   1.0000
     1.0000   1.0000   1.0000   1.0000   1.0000   1.0000   0.0000   0.0000
     0.0000   0.0000   0.0000   0.0000   0.0000   0.0000   0.0000   0.0000
     0.0000   0.0000   0.0000

     the Fermi energy is    13.8501 ev
     (compare with:    12.2792 eV, computed in scf)

     Writing output data file ./tmp/FeO.save/
 
     init_run     :      1.55s CPU      1.66s WALL (       1 calls)
     electrons    :     39.88s CPU     40.08s WALL (       1 calls)

     Called by init_run:
     wfcinit      :      0.08s CPU      0.08s WALL (       1 calls)
     wfcinit:atom :      0.01s CPU      0.01s WALL (      64 calls)
     wfcinit:wfcr :      1.79s CPU      1.81s WALL (      64 calls)
     potinit      :      0.74s CPU      0.78s WALL (       1 calls)
     hinit0       :      0.68s CPU      0.71s WALL (       1 calls)

     Called by electrons:
     c_bands      :     39.88s CPU     40.07s WALL (       1 calls)
     v_of_rho     :      0.10s CPU      0.11s WALL (       1 calls)
     v_h          :      0.00s CPU      0.00s WALL (       1 calls)
     v_xc         :      0.10s CPU      0.11s WALL (       1 calls)
     newd         :      0.04s CPU      0.08s WALL (       1 calls)
     PAW_pot      :      0.64s CPU      0.67s WALL (       1 calls)

     Called by c_bands:
     init_us_2    :      0.04s CPU      0.04s WALL (     128 calls)
     cegterg      :     37.92s CPU     38.09s WALL (     126 calls)

     Called by sum_band:

     Called by *egterg:
     cdiaghg      :      2.62s CPU      2.64s WALL (    1988 calls)
     cegterg:over :      0.86s CPU      0.86s WALL (    1924 calls)
     cegterg:upda :      0.45s CPU      0.45s WALL (    1924 calls)
     cegterg:last :      1.15s CPU      1.15s WALL (    1172 calls)
     h_psi        :     33.80s CPU     33.96s WALL (    2114 calls)
     s_psi        :      0.37s CPU      0.37s WALL (    2178 calls)
     g_psi        :      0.18s CPU      0.18s WALL (    1924 calls)

     Called by h_psi:
     h_psi:calbec :      0.37s CPU      0.37s WALL (    2114 calls)
     vloc_psi     :     32.80s CPU     32.96s WALL (    2114 calls)
     add_vuspsi   :      0.35s CPU      0.36s WALL (    2114 calls)
     vhpsi        :      0.22s CPU      0.22s WALL (    2114 calls)

     General routines
     calbec       :      0.48s CPU      0.48s WALL (    4292 calls)
     fft          :      0.02s CPU      0.04s WALL (      23 calls)
     ffts         :      0.00s CPU      0.00s WALL (       2 calls)
     fftw         :     29.28s CPU     29.43s WALL (   87528 calls)
     interpolate  :      0.00s CPU      0.00s WALL (       2 calls)
     davcio       :      0.01s CPU      0.02s WALL (     256 calls)
 
     Parallel routines

     Hubbard U routines
     vhpsi        :      0.22s CPU      0.22s WALL (    2114 calls)

     PAW routines
     PAW_pot      :      0.64s CPU      0.67s WALL (       1 calls)
 
     PWSCF        :     41.68s CPU     42.04s WALL

 
   This run was terminated on:  14:53: 1  16Apr2021            

=------------------------------------------------------------------------------=
   JOB DONE.
=------------------------------------------------------------------------------=
