
     Program PWSCF v.6.7MaX starts on 16Apr2021 at 14:51: 7 

     This program is part of the open-source Quantum ESPRESSO suite
     for quantum simulation of materials; please cite
         "P. Giannozzi et al., J. Phys.:Condens. Matter 21 395502 (2009);
         "P. Giannozzi et al., J. Phys.:Condens. Matter 29 465901 (2017);
          URL http://www.quantum-espresso.org", 
     in publications or presentations arising from this work. More details at
     http://www.quantum-espresso.org/quote

     Parallel version (MPI), running on     1 processors

     MPI processes distributed on     1 nodes
     Waiting for input...
     Reading input from standard input

     Current dimensions of program PWSCF are:
     Max number of different atomic species (ntypx) = 10
     Max number of k-points (npk) =  40000
     Max angular momentum in pseudopotentials (lmaxx) =  3
     Message from routine volume:
     axis vectors are left-handed
     file Fe.pbesol-spn-kjpaw_psl.0.2.1.UPF: wavefunction(s)  3D renormalized
     file Fe.pbesol-spn-kjpaw_psl.0.2.1.UPF: wavefunction(s)  3D renormalized
     file O.pbesol-n-kjpaw_psl.0.1.UPF: wavefunction(s)  2P renormalized

     Subspace diagonalization in iterative solution of the eigenvalue problem:
     a serial algorithm will be used

     Message from routine setup:
     using ibrav=0 with symmetry is DISCOURAGED, use correct ibrav instead
 
     G-vector sticks info
     --------------------
     sticks:   dense  smooth     PW     G-vecs:    dense   smooth      PW
     Sum        1061     539    171                17255     6111    1141
 


     bravais-lattice index     =            0
     lattice parameter (alat)  =       8.1900  a.u.
     unit-cell volume          =     274.6766 (a.u.)^3
     number of atoms/cell      =            4
     number of atomic types    =            3
     number of electrons       =        44.00
     number of Kohn-Sham states=           26
     kinetic-energy cutoff     =      30.0000  Ry
     charge density cutoff     =     240.0000  Ry
     scf convergence threshold =      1.0E-09
     mixing beta               =       0.3000
     number of iterations used =            8  plain     mixing
     Exchange-correlation= SLA  PW   PSX  PSC
                           (   1   4  10   8   0   0   0)

     celldm(1)=   8.190000  celldm(2)=   0.000000  celldm(3)=   0.000000
     celldm(4)=   0.000000  celldm(5)=   0.000000  celldm(6)=   0.000000

     crystal axes: (cart. coord. in units of alat)
               a(1) = (   0.500000   0.500000   1.000000 )  
               a(2) = (   0.500000   1.000000   0.500000 )  
               a(3) = (   1.000000   0.500000   0.500000 )  

     reciprocal axes: (cart. coord. in units 2 pi/alat)
               b(1) = ( -0.500000 -0.500000  1.500000 )  
               b(2) = ( -0.500000  1.500000 -0.500000 )  
               b(3) = (  1.500000 -0.500000 -0.500000 )  


     PseudoPot. # 1 for Fe read from file:
     ../../pseudo/Fe.pbesol-spn-kjpaw_psl.0.2.1.UPF
     MD5 check sum: 7febcda02fc281f884e3aa15a414695d
     Pseudo is Projector augmented-wave + core cor, Zval = 16.0
     Generated using "atomic" code by A. Dal Corso  v.6.0 svn rev. 13079
     Shape of augmentation charge: PSQ
     Using radial grid of 1191 points,  6 beta functions with: 
                l(1) =   0
                l(2) =   0
                l(3) =   1
                l(4) =   1
                l(5) =   2
                l(6) =   2
     Q(r) pseudized with 0 coefficients 


     PseudoPot. # 2 for Fe read from file:
     ../../pseudo/Fe.pbesol-spn-kjpaw_psl.0.2.1.UPF
     MD5 check sum: 7febcda02fc281f884e3aa15a414695d
     Pseudo is Projector augmented-wave + core cor, Zval = 16.0
     Generated using "atomic" code by A. Dal Corso  v.6.0 svn rev. 13079
     Shape of augmentation charge: PSQ
     Using radial grid of 1191 points,  6 beta functions with: 
                l(1) =   0
                l(2) =   0
                l(3) =   1
                l(4) =   1
                l(5) =   2
                l(6) =   2
     Q(r) pseudized with 0 coefficients 


     PseudoPot. # 3 for O  read from file:
     ../../pseudo/O.pbesol-n-kjpaw_psl.0.1.UPF
     MD5 check sum: 126339daddaa87477ab44acfa0b5aa00
     Pseudo is Projector augmented-wave + core cor, Zval =  6.0
     Generated using "atomic" code by A. Dal Corso  v.6.0 svn rev. 13079
     Shape of augmentation charge: BESSEL
     Using radial grid of 1095 points,  4 beta functions with: 
                l(1) =   0
                l(2) =   0
                l(3) =   1
                l(4) =   1
     Q(r) pseudized with 0 coefficients 


     atomic species   valence    mass     pseudopotential
        Fe1           16.00    55.84500     Fe( 1.00)
        Fe2           16.00    55.84500     Fe( 1.00)
        O              6.00    16.00000     O ( 1.00)

     Starting magnetic structure 
     atomic species   magnetization
        Fe1          0.500
        Fe2         -0.500
        O            0.000


     Simplified LDA+U calculation (l_max = 2) with parameters (eV):
     atomic species    L          U    alpha       J0     beta
        Fe1            2     4.6000   0.0000   0.0000   0.0000
        Fe2            2     4.6000   0.0000   0.0000   0.0000



     12 Sym. Ops., with inversion, found


                                    s                        frac. trans.

      isym =  1     identity                                     

 cryst.   s( 1) = (     1          0          0      )
                  (     0          1          0      )
                  (     0          0          1      )

 cart.    s( 1) = (  1.0000000  0.0000000  0.0000000 )
                  (  0.0000000  1.0000000  0.0000000 )
                  (  0.0000000  0.0000000  1.0000000 )


      isym =  2     180 deg rotation - cart. axis [1,-1,0]       

 cryst.   s( 2) = (    -1          0          0      )
                  (     0          0         -1      )
                  (     0         -1          0      )

 cart.    s( 2) = (  0.0000000 -1.0000000  0.0000000 )
                  ( -1.0000000  0.0000000  0.0000000 )
                  (  0.0000000  0.0000000 -1.0000000 )


      isym =  3     180 deg rotation - cart. axis [-1,0,1]       

 cryst.   s( 3) = (     0          0         -1      )
                  (     0         -1          0      )
                  (    -1          0          0      )

 cart.    s( 3) = (  0.0000000  0.0000000 -1.0000000 )
                  (  0.0000000 -1.0000000  0.0000000 )
                  ( -1.0000000  0.0000000  0.0000000 )


      isym =  4     180 deg rotation - cart. axis [0,1,-1]       

 cryst.   s( 4) = (     0         -1          0      )
                  (    -1          0          0      )
                  (     0          0         -1      )

 cart.    s( 4) = ( -1.0000000  0.0000000  0.0000000 )
                  (  0.0000000  0.0000000 -1.0000000 )
                  (  0.0000000 -1.0000000  0.0000000 )


      isym =  5     120 deg rotation - cart. axis [-1,-1,-1]     

 cryst.   s( 5) = (     0          1          0      )
                  (     0          0          1      )
                  (     1          0          0      )

 cart.    s( 5) = (  0.0000000  1.0000000  0.0000000 )
                  (  0.0000000  0.0000000  1.0000000 )
                  (  1.0000000  0.0000000  0.0000000 )


      isym =  6     120 deg rotation - cart. axis [1,1,1]        

 cryst.   s( 6) = (     0          0          1      )
                  (     1          0          0      )
                  (     0          1          0      )

 cart.    s( 6) = (  0.0000000  0.0000000  1.0000000 )
                  (  1.0000000  0.0000000  0.0000000 )
                  (  0.0000000  1.0000000  0.0000000 )


      isym =  7     inversion                                    

 cryst.   s( 7) = (    -1          0          0      )
                  (     0         -1          0      )
                  (     0          0         -1      )

 cart.    s( 7) = ( -1.0000000  0.0000000  0.0000000 )
                  (  0.0000000 -1.0000000  0.0000000 )
                  (  0.0000000  0.0000000 -1.0000000 )


      isym =  8     inv. 180 deg rotation - cart. axis [1,-1,0]  

 cryst.   s( 8) = (     1          0          0      )
                  (     0          0          1      )
                  (     0          1          0      )

 cart.    s( 8) = (  0.0000000  1.0000000  0.0000000 )
                  (  1.0000000  0.0000000  0.0000000 )
                  (  0.0000000  0.0000000  1.0000000 )


      isym =  9     inv. 180 deg rotation - cart. axis [-1,0,1]  

 cryst.   s( 9) = (     0          0          1      )
                  (     0          1          0      )
                  (     1          0          0      )

 cart.    s( 9) = (  0.0000000  0.0000000  1.0000000 )
                  (  0.0000000  1.0000000  0.0000000 )
                  (  1.0000000  0.0000000  0.0000000 )


      isym = 10     inv. 180 deg rotation - cart. axis [0,1,-1]  

 cryst.   s(10) = (     0          1          0      )
                  (     1          0          0      )
                  (     0          0          1      )

 cart.    s(10) = (  1.0000000  0.0000000  0.0000000 )
                  (  0.0000000  0.0000000  1.0000000 )
                  (  0.0000000  1.0000000  0.0000000 )


      isym = 11     inv. 120 deg rotation - cart. axis [-1,-1,-1]

 cryst.   s(11) = (     0         -1          0      )
                  (     0          0         -1      )
                  (    -1          0          0      )

 cart.    s(11) = (  0.0000000 -1.0000000  0.0000000 )
                  (  0.0000000  0.0000000 -1.0000000 )
                  ( -1.0000000  0.0000000  0.0000000 )


      isym = 12     inv. 120 deg rotation - cart. axis [1,1,1]   

 cryst.   s(12) = (     0          0         -1      )
                  (    -1          0          0      )
                  (     0         -1          0      )

 cart.    s(12) = (  0.0000000  0.0000000 -1.0000000 )
                  ( -1.0000000  0.0000000  0.0000000 )
                  (  0.0000000 -1.0000000  0.0000000 )


   Cartesian axes

     site n.     atom                  positions (alat units)
         1           Fe1 tau(   1) = (   0.0000000   0.0000000   0.0000000  )
         2           Fe2 tau(   2) = (   1.0000000   1.0000000   1.0000000  )
         3           O   tau(   3) = (   0.5000000   0.5000000   0.5000000  )
         4           O   tau(   4) = (   1.5000000   1.5000000   1.5000000  )

   Crystallographic axes

     site n.     atom                  positions (cryst. coord.)
         1           Fe1 tau(   1) = (  0.0000000  0.0000000  0.0000000  )
         2           Fe2 tau(   2) = (  0.5000000  0.5000000  0.5000000  )
         3           O   tau(   3) = (  0.2500000  0.2500000  0.2500000  )
         4           O   tau(   4) = (  0.7500000  0.7500000  0.7500000  )

     number of k points=     6  Marzari-Vanderbilt smearing, width (Ry)=  0.0200
                       cart. coord. in units 2pi/alat
        k(    1) = (   0.0000000   0.0000000   0.0000000), wk =   0.0370370
        k(    2) = (   0.5000000  -0.1666667  -0.1666667), wk =   0.2222222
        k(    3) = (   0.3333333   0.3333333  -0.3333333), wk =   0.2222222
        k(    4) = (  -0.6666667   0.6666667   0.0000000), wk =   0.2222222
        k(    5) = (   0.1666667   0.1666667   0.1666667), wk =   0.0740741
        k(    6) = (  -0.8333333   0.5000000   0.5000000), wk =   0.2222222

                       cryst. coord.
        k(    1) = (   0.0000000   0.0000000   0.0000000), wk =   0.0370370
        k(    2) = (   0.0000000   0.0000000   0.3333333), wk =   0.2222222
        k(    3) = (   0.0000000   0.3333333   0.3333333), wk =   0.2222222
        k(    4) = (   0.0000000   0.3333333  -0.3333333), wk =   0.2222222
        k(    5) = (   0.3333333   0.3333333   0.3333333), wk =   0.0740741
        k(    6) = (   0.3333333   0.3333333  -0.3333333), wk =   0.2222222

     Dense  grid:    17255 G-vectors     FFT dimensions: (  50,  50,  50)

     Smooth grid:     6111 G-vectors     FFT dimensions: (  36,  36,  36)

     Dynamical RAM for                 wfc:       0.30 MB

     Dynamical RAM for     wfc (w. buffer):       3.93 MB

     Dynamical RAM for             U proj.:       0.12 MB

     Dynamical RAM for  U proj. (w. buff.):       1.51 MB

     Dynamical RAM for           str. fact:       0.79 MB

     Dynamical RAM for           local pot:       0.00 MB

     Dynamical RAM for          nlocal pot:       0.60 MB

     Dynamical RAM for                qrad:       3.73 MB

     Dynamical RAM for          rho,v,vnew:       7.30 MB

     Dynamical RAM for               rhoin:       2.43 MB

     Dynamical RAM for            rho*nmix:       8.43 MB

     Dynamical RAM for           G-vectors:       1.03 MB

     Dynamical RAM for          h,s,v(r/c):       0.12 MB

     Dynamical RAM for          <psi|beta>:       0.02 MB

     Dynamical RAM for                 psi:       0.60 MB

     Dynamical RAM for                hpsi:       0.60 MB

     Dynamical RAM for                spsi:       0.60 MB

     Dynamical RAM for      wfcinit/wfcrot:       0.82 MB

     Dynamical RAM for           addusdens:      49.76 MB

     Estimated static dynamical RAM per process >      36.54 MB

     Estimated max dynamical RAM per process >      86.30 MB

     Check: negative core charge=   -0.000246
     Generating pointlists ...
     new r_m :   0.2063 (alat units)  1.6892 (a.u.) for type    1
     new r_m :   0.2063 (alat units)  1.6892 (a.u.) for type    2
     new r_m :   0.2063 (alat units)  1.6892 (a.u.) for type    3

     Initial potential from superposition of free atoms

     starting charge   43.99919, renormalised to   44.00000
 --- in v_hubbard ---
Hubbard energy    0.2705
 -------
     Number of +U iterations with fixed ns =  0
     Starting occupations:
 --- enter write_ns ---
 LDA+U parameters:
U( 1)     =  4.60000000
U( 2)     =  4.60000000
atom    1   Tr[ns(na)] (up, down, total) =   5.00000  1.00000  6.00000
   spin  1
    eigenvalues: 
  1.000  1.000  1.000  1.000  1.000
    eigenvectors:
  1.000  0.000  0.000  0.000  0.000
  0.000  1.000  0.000  0.000  0.000
  0.000  0.000  1.000  0.000  0.000
  0.000  0.000  0.000  1.000  0.000
  0.000  0.000  0.000  0.000  1.000
    occupations:
  1.000  0.000  0.000  0.000  0.000
  0.000  1.000  0.000  0.000  0.000
  0.000  0.000  1.000  0.000  0.000
  0.000  0.000  0.000  1.000  0.000
  0.000  0.000  0.000  0.000  1.000
   spin  2
    eigenvalues: 
  0.200  0.200  0.200  0.200  0.200
    eigenvectors:
  1.000  0.000  0.000  0.000  0.000
  0.000  1.000  0.000  0.000  0.000
  0.000  0.000  1.000  0.000  0.000
  0.000  0.000  0.000  1.000  0.000
  0.000  0.000  0.000  0.000  1.000
    occupations:
  0.200  0.000  0.000  0.000  0.000
  0.000  0.200  0.000  0.000  0.000
  0.000  0.000  0.200  0.000  0.000
  0.000  0.000  0.000  0.200  0.000
  0.000  0.000  0.000  0.000  0.200
atomic mag. moment =   4.00000
atom    2   Tr[ns(na)] (up, down, total) =   1.00000  5.00000  6.00000
   spin  1
    eigenvalues: 
  0.200  0.200  0.200  0.200  0.200
    eigenvectors:
  1.000  0.000  0.000  0.000  0.000
  0.000  1.000  0.000  0.000  0.000
  0.000  0.000  1.000  0.000  0.000
  0.000  0.000  0.000  1.000  0.000
  0.000  0.000  0.000  0.000  1.000
    occupations:
  0.200  0.000  0.000  0.000  0.000
  0.000  0.200  0.000  0.000  0.000
  0.000  0.000  0.200  0.000  0.000
  0.000  0.000  0.000  0.200  0.000
  0.000  0.000  0.000  0.000  0.200
   spin  2
    eigenvalues: 
  1.000  1.000  1.000  1.000  1.000
    eigenvectors:
  1.000  0.000  0.000  0.000  0.000
  0.000  1.000  0.000  0.000  0.000
  0.000  0.000  1.000  0.000  0.000
  0.000  0.000  0.000  1.000  0.000
  0.000  0.000  0.000  0.000  1.000
    occupations:
  1.000  0.000  0.000  0.000  0.000
  0.000  1.000  0.000  0.000  0.000
  0.000  0.000  1.000  0.000  0.000
  0.000  0.000  0.000  1.000  0.000
  0.000  0.000  0.000  0.000  1.000
atomic mag. moment =  -4.00000
N of occupied +U levels =   12.000000
 --- exit write_ns ---
 Atomic wfc used for LDA+U Projector are NOT orthogonalized
     Starting wfcs are   34 randomized atomic wfcs
     Checking if some PAW data can be deallocated... 

     total cpu time spent up to now is        2.2 secs

     Self-consistent Calculation

     iteration #  1     ecut=    30.00 Ry     beta= 0.30
     Davidson diagonalization with overlap
     ethr =  1.00E-02,  avg # of iterations =  2.0
 --- enter write_ns ---
 LDA+U parameters:
U( 1)     =  4.60000000
U( 2)     =  4.60000000
atom    1   Tr[ns(na)] (up, down, total) =   5.00629  1.14314  6.14943
   spin  1
    eigenvalues: 
  1.000  1.000  1.002  1.002  1.002
    eigenvectors:
  0.038  0.962  0.000  0.000  0.000
  0.000  0.000  0.005  0.662  0.333
  0.000  0.000  0.449  0.218  0.333
  0.962  0.038  0.000  0.000  0.000
  0.000  0.000  0.546  0.120  0.333
    occupations:
  1.000  0.000  0.000  0.000  0.000
  0.000  1.002  0.000  0.000 -0.000
  0.000  0.000  1.002 -0.000 -0.000
  0.000  0.000 -0.000  1.000 -0.000
  0.000 -0.000 -0.000 -0.000  1.002
   spin  2
    eigenvalues: 
  0.129  0.129  0.286  0.286  0.314
    eigenvectors:
  0.038  0.946  0.011  0.005  0.000
  0.006  0.005  0.002  0.654  0.333
  0.009  0.001  0.524  0.132  0.333
  0.946  0.038  0.005  0.011  0.000
  0.000  0.010  0.458  0.198  0.333
    occupations:
  0.131 -0.008 -0.008  0.000 -0.016
 -0.008  0.294  0.010 -0.014 -0.010
 -0.008  0.010  0.294  0.014 -0.010
  0.000 -0.014  0.014  0.131 -0.000
 -0.016 -0.010 -0.010 -0.000  0.294
atomic mag. moment =   3.86315
atom    2   Tr[ns(na)] (up, down, total) =   1.14337  5.00631  6.14968
   spin  1
    eigenvalues: 
  0.129  0.129  0.286  0.286  0.314
    eigenvectors:
  0.083  0.902  0.010  0.005  0.000
  0.005  0.005  0.004  0.653  0.333
  0.010  0.001  0.533  0.123  0.333
  0.902  0.083  0.005  0.010  0.000
  0.001  0.009  0.448  0.209  0.333
    occupations:
  0.131 -0.008 -0.008  0.000 -0.016
 -0.008  0.294  0.010 -0.014 -0.010
 -0.008  0.010  0.294  0.014 -0.010
  0.000 -0.014  0.014  0.131 -0.000
 -0.016 -0.010 -0.010 -0.000  0.294
   spin  2
    eigenvalues: 
  1.000  1.000  1.002  1.002  1.002
    eigenvectors:
  0.003  0.997  0.000  0.000  0.000
  0.000  0.000  0.000  0.667  0.333
  0.000  0.000  0.499  0.168  0.333
  0.997  0.003  0.000  0.000  0.000
  0.000  0.000  0.501  0.166  0.333
    occupations:
  1.000  0.000  0.000  0.000  0.000
  0.000  1.002  0.000  0.000 -0.000
  0.000  0.000  1.002 -0.000 -0.000
  0.000  0.000 -0.000  1.000 -0.000
  0.000 -0.000 -0.000 -0.000  1.002
atomic mag. moment =  -3.86293
N of occupied +U levels =   12.299115
 --- exit write_ns ---

     negative rho (up, down):  6.649E-05 6.661E-05
 --- in v_hubbard ---
Hubbard energy    0.2846
 -------

     total cpu time spent up to now is        4.0 secs

     total energy              =    -734.48991921 Ry
     estimated scf accuracy    <       1.67682345 Ry

     total magnetization       =     0.00 Bohr mag/cell
     absolute magnetization    =     8.39 Bohr mag/cell

     iteration #  2     ecut=    30.00 Ry     beta= 0.30
     Davidson diagonalization with overlap
     ethr =  3.81E-03,  avg # of iterations =  2.0
 --- enter write_ns ---
 LDA+U parameters:
U( 1)     =  4.60000000
U( 2)     =  4.60000000
atom    1   Tr[ns(na)] (up, down, total) =   5.00180  1.50568  6.50749
   spin  1
    eigenvalues: 
  0.999  0.999  1.001  1.001  1.001
    eigenvectors:
  0.000  1.000  0.000  0.000  0.000
  0.000  0.000  0.333  0.023  0.644
  0.000  0.000  0.333  0.384  0.283
  1.000  0.000  0.000  0.000  0.000
  0.000  0.000  0.333  0.594  0.073
    occupations:
  0.999 -0.000 -0.000  0.000 -0.000
 -0.000  1.001 -0.000 -0.000  0.000
 -0.000 -0.000  1.001  0.000  0.000
  0.000 -0.000  0.000  0.999 -0.000
 -0.000  0.000  0.000 -0.000  1.001
   spin  2
    eigenvalues: 
  0.183  0.183  0.350  0.350  0.440
    eigenvectors:
  0.326  0.632  0.022  0.021  0.000
  0.028  0.000  0.039  0.599  0.333
  0.005  0.024  0.592  0.047  0.333
  0.632  0.326  0.021  0.022  0.000
  0.010  0.019  0.327  0.311  0.333
    occupations:
  0.190 -0.014 -0.014  0.000 -0.028
 -0.014  0.375  0.032 -0.024 -0.032
 -0.014  0.032  0.375  0.024 -0.032
  0.000 -0.024  0.024  0.190 -0.000
 -0.028 -0.032 -0.032 -0.000  0.375
atomic mag. moment =   3.49612
atom    2   Tr[ns(na)] (up, down, total) =   1.50995  5.00179  6.51174
   spin  1
    eigenvalues: 
  0.183  0.183  0.350  0.350  0.443
    eigenvectors:
  0.947  0.012  0.017  0.024  0.000
  0.010  0.018  0.073  0.566  0.333
  0.004  0.023  0.619  0.020  0.333
  0.012  0.947  0.024  0.017  0.000
  0.027  0.000  0.267  0.372  0.333
    occupations:
  0.190 -0.014 -0.014  0.000 -0.027
 -0.014  0.377  0.033 -0.024 -0.033
 -0.014  0.033  0.377  0.024 -0.033
  0.000 -0.024  0.024  0.190 -0.000
 -0.027 -0.033 -0.033 -0.000  0.377
   spin  2
    eigenvalues: 
  0.999  0.999  1.001  1.001  1.001
    eigenvectors:
  0.049  0.951  0.000  0.000  0.000
  0.000  0.000  0.333  0.035  0.631
  0.000  0.000  0.333  0.612  0.055
  0.951  0.049  0.000  0.000  0.000
  0.000  0.000  0.333  0.353  0.314
    occupations:
  0.999 -0.000 -0.000  0.000 -0.000
 -0.000  1.001 -0.000 -0.000  0.000
 -0.000 -0.000  1.001  0.000  0.000
  0.000 -0.000  0.000  0.999 -0.000
 -0.000  0.000  0.000 -0.000  1.001
atomic mag. moment =  -3.49185
N of occupied +U levels =   13.019225
 --- exit write_ns ---

     negative rho (up, down):  1.439E-04 1.443E-04
 --- in v_hubbard ---
Hubbard energy    0.3033
 -------

     total cpu time spent up to now is        5.7 secs

     total energy              =    -734.86569439 Ry
     estimated scf accuracy    <       0.50086264 Ry

     total magnetization       =     0.00 Bohr mag/cell
     absolute magnetization    =     7.77 Bohr mag/cell

     iteration #  3     ecut=    30.00 Ry     beta= 0.30
     Davidson diagonalization with overlap
     ethr =  1.14E-03,  avg # of iterations =  1.2
 --- enter write_ns ---
 LDA+U parameters:
U( 1)     =  4.60000000
U( 2)     =  4.60000000
atom    1   Tr[ns(na)] (up, down, total) =   5.00296  1.54900  6.55196
   spin  1
    eigenvalues: 
  0.999  0.999  1.002  1.002  1.002
    eigenvectors:
  0.008  0.991  0.000  0.000  0.000
  0.000  0.000  0.333  0.008  0.658
  0.000  0.000  0.333  0.431  0.235
  0.991  0.008  0.000  0.000  0.000
  0.000  0.000  0.333  0.560  0.106
    occupations:
  0.999 -0.000 -0.000  0.000 -0.000
 -0.000  1.002 -0.000 -0.000  0.000
 -0.000 -0.000  1.002  0.000  0.000
  0.000 -0.000  0.000  0.999 -0.000
 -0.000  0.000  0.000 -0.000  1.002
   spin  2
    eigenvalues: 
  0.187  0.187  0.337  0.337  0.502
    eigenvectors:
  0.449  0.497  0.028  0.026  0.000
  0.034  0.002  0.035  0.595  0.333
  0.003  0.033  0.580  0.050  0.333
  0.497  0.449  0.026  0.028  0.000
  0.017  0.019  0.330  0.300  0.333
    occupations:
  0.195 -0.014 -0.014  0.000 -0.028
 -0.014  0.386  0.058 -0.024 -0.058
 -0.014  0.058  0.386  0.024 -0.058
  0.000 -0.024  0.024  0.195 -0.000
 -0.028 -0.058 -0.058 -0.000  0.386
atomic mag. moment =   3.45397
atom    2   Tr[ns(na)] (up, down, total) =   1.53219  5.00297  6.53517
   spin  1
    eigenvalues: 
  0.186  0.186  0.330  0.330  0.501
    eigenvectors:
  0.023  0.922  0.040  0.015  0.000
  0.032  0.005  0.000  0.630  0.333
  0.022  0.014  0.487  0.143  0.333
  0.922  0.023  0.015  0.040  0.000
  0.001  0.036  0.458  0.173  0.333
    occupations:
  0.194 -0.013 -0.013  0.000 -0.027
 -0.013  0.381  0.060 -0.023 -0.060
 -0.013  0.060  0.381  0.023 -0.060
  0.000 -0.023  0.023  0.194 -0.000
 -0.027 -0.060 -0.060 -0.000  0.381
   spin  2
    eigenvalues: 
  0.999  0.999  1.002  1.002  1.002
    eigenvectors:
  0.096  0.903  0.000  0.001  0.000
  0.000  0.000  0.333  0.002  0.664
  0.000  0.000  0.333  0.464  0.202
  0.903  0.096  0.000  0.000  0.001
  0.000  0.000  0.333  0.533  0.134
    occupations:
  0.999 -0.000 -0.000  0.000 -0.000
 -0.000  1.002 -0.000 -0.000  0.000
 -0.000 -0.000  1.002  0.000  0.000
  0.000 -0.000  0.000  0.999 -0.000
 -0.000  0.000  0.000 -0.000  1.002
atomic mag. moment =  -3.47078
N of occupied +U levels =   13.087126
 --- exit write_ns ---

     negative rho (up, down):  3.478E-04 3.434E-04
 --- in v_hubbard ---
Hubbard energy    0.3380
 -------

     total cpu time spent up to now is        7.4 secs

     total energy              =    -735.01730098 Ry
     estimated scf accuracy    <       0.26525819 Ry

     total magnetization       =    -0.02 Bohr mag/cell
     absolute magnetization    =     7.65 Bohr mag/cell

     iteration #  4     ecut=    30.00 Ry     beta= 0.30
     Davidson diagonalization with overlap
     ethr =  6.03E-04,  avg # of iterations =  2.6
 --- enter write_ns ---
 LDA+U parameters:
U( 1)     =  4.60000000
U( 2)     =  4.60000000
atom    1   Tr[ns(na)] (up, down, total) =   4.99999  1.51289  6.51288
   spin  1
    eigenvalues: 
  0.998  0.998  1.001  1.001  1.001
    eigenvectors:
  0.010  0.989  0.000  0.001  0.000
  0.000  0.000  0.333  0.004  0.662
  0.000  0.000  0.333  0.543  0.124
  0.989  0.010  0.000  0.000  0.001
  0.000  0.001  0.333  0.452  0.214
    occupations:
  0.998 -0.000 -0.000  0.000 -0.000
 -0.000  1.001 -0.000 -0.000  0.000
 -0.000 -0.000  1.001  0.000  0.000
  0.000 -0.000  0.000  0.998 -0.000
 -0.000  0.000  0.000 -0.000  1.001
   spin  2
    eigenvalues: 
  0.178  0.178  0.215  0.215  0.728
    eigenvectors:
  0.380  0.021  0.155  0.444  0.000
  0.188  0.212  0.064  0.203  0.333
  0.033  0.366  0.267  0.000  0.333
  0.021  0.380  0.444  0.155  0.000
  0.378  0.021  0.069  0.198  0.333
    occupations:
  0.200 -0.008 -0.008  0.000 -0.015
 -0.008  0.371  0.178 -0.013 -0.178
 -0.008  0.178  0.371  0.013 -0.178
  0.000 -0.013  0.013  0.200 -0.000
 -0.015 -0.178 -0.178 -0.000  0.371
atomic mag. moment =   3.48709
atom    2   Tr[ns(na)] (up, down, total) =   1.68966  5.00196  6.69162
   spin  1
    eigenvalues: 
  0.189  0.189  0.228  0.228  0.856
    eigenvectors:
  0.372  0.013  0.168  0.447  0.000
  0.174  0.236  0.059  0.198  0.333
  0.045  0.365  0.257  0.000  0.333
  0.013  0.372  0.447  0.168  0.000
  0.396  0.014  0.070  0.187  0.333
    occupations:
  0.213 -0.008 -0.008  0.000 -0.015
 -0.008  0.421  0.217 -0.013 -0.217
 -0.008  0.217  0.421  0.013 -0.217
  0.000 -0.013  0.013  0.213 -0.000
 -0.015 -0.217 -0.217 -0.000  0.421
   spin  2
    eigenvalues: 
  0.999  0.999  1.001  1.002  1.002
    eigenvectors:
  0.000  0.998  0.000  0.001  0.000
  0.001  0.000  0.333  0.004  0.661
  0.001  0.000  0.333  0.450  0.216
  0.998  0.000  0.000  0.000  0.001
  0.000  0.001  0.333  0.544  0.122
    occupations:
  0.999 -0.000 -0.000  0.000 -0.000
 -0.000  1.002 -0.000 -0.000  0.000
 -0.000 -0.000  1.002  0.000  0.000
  0.000 -0.000  0.000  0.999 -0.000
 -0.000  0.000  0.000 -0.000  1.002
atomic mag. moment =  -3.31230
N of occupied +U levels =   13.204503
 --- exit write_ns ---

     negative rho (up, down):  3.469E-04 3.350E-04
 --- in v_hubbard ---
Hubbard energy    0.3383
 -------

     total cpu time spent up to now is        9.1 secs

     total energy              =    -735.05834452 Ry
     estimated scf accuracy    <       0.08538252 Ry

     total magnetization       =     0.15 Bohr mag/cell
     absolute magnetization    =     7.43 Bohr mag/cell

     iteration #  5     ecut=    30.00 Ry     beta= 0.30
     Davidson diagonalization with overlap
     ethr =  1.94E-04,  avg # of iterations =  1.8
 --- enter write_ns ---
 LDA+U parameters:
U( 1)     =  4.60000000
U( 2)     =  4.60000000
atom    1   Tr[ns(na)] (up, down, total) =   4.99959  1.51513  6.51472
   spin  1
    eigenvalues: 
  0.998  0.998  1.001  1.001  1.001
    eigenvectors:
  0.031  0.968  0.000  0.001  0.001
  0.001  0.000  0.333  0.014  0.651
  0.001  0.000  0.333  0.576  0.090
  0.968  0.031  0.000  0.001  0.001
  0.000  0.001  0.333  0.408  0.258
    occupations:
  0.998 -0.000 -0.000  0.000 -0.000
 -0.000  1.001 -0.000 -0.000  0.000
 -0.000 -0.000  1.001  0.000  0.000
  0.000 -0.000  0.000  0.998 -0.000
 -0.000  0.000  0.000 -0.000  1.001
   spin  2
    eigenvalues: 
  0.173  0.173  0.209  0.209  0.751
    eigenvectors:
  0.251  0.009  0.149  0.592  0.000
  0.208  0.286  0.052  0.121  0.333
  0.055  0.438  0.173  0.001  0.333
  0.009  0.251  0.592  0.149  0.000
  0.477  0.016  0.035  0.139  0.333
    occupations:
  0.200 -0.007 -0.007  0.000 -0.013
 -0.007  0.372  0.189 -0.011 -0.189
 -0.007  0.189  0.372  0.011 -0.189
  0.000 -0.011  0.011  0.200 -0.000
 -0.013 -0.189 -0.189 -0.000  0.372
atomic mag. moment =   3.48446
atom    2   Tr[ns(na)] (up, down, total) =   1.68458  5.00172  6.68630
   spin  1
    eigenvalues: 
  0.182  0.182  0.219  0.219  0.882
    eigenvectors:
  0.191  0.001  0.129  0.680  0.000
  0.161  0.379  0.045  0.082  0.333
  0.110  0.429  0.126  0.002  0.333
  0.001  0.191  0.680  0.129  0.000
  0.538  0.002  0.020  0.107  0.333
    occupations:
  0.212 -0.006 -0.006  0.000 -0.012
 -0.006  0.420  0.231 -0.010 -0.231
 -0.006  0.231  0.420  0.010 -0.231
  0.000 -0.010  0.010  0.212 -0.000
 -0.012 -0.231 -0.231 -0.000  0.420
   spin  2
    eigenvalues: 
  0.999  0.999  1.001  1.002  1.002
    eigenvectors:
  0.000  0.999  0.000  0.001  0.000
  0.001  0.000  0.333  0.002  0.664
  0.001  0.000  0.333  0.470  0.196
  0.999  0.000  0.000  0.000  0.001
  0.000  0.001  0.333  0.527  0.139
    occupations:
  0.999 -0.000 -0.000  0.000 -0.000
 -0.000  1.001 -0.000 -0.000  0.000
 -0.000 -0.000  1.001  0.000  0.000
  0.000 -0.000  0.000  0.999 -0.000
 -0.000  0.000  0.000 -0.000  1.001
atomic mag. moment =  -3.31713
N of occupied +U levels =   13.201020
 --- exit write_ns ---

     negative rho (up, down):  3.368E-04 3.346E-04
 --- in v_hubbard ---
Hubbard energy    0.3398
 -------

     total cpu time spent up to now is       10.8 secs

     total energy              =    -735.05231921 Ry
     estimated scf accuracy    <       0.09997805 Ry

     total magnetization       =     0.14 Bohr mag/cell
     absolute magnetization    =     7.43 Bohr mag/cell

     iteration #  6     ecut=    30.00 Ry     beta= 0.30
     Davidson diagonalization with overlap
     ethr =  1.94E-04,  avg # of iterations =  1.5
 --- enter write_ns ---
 LDA+U parameters:
U( 1)     =  4.60000000
U( 2)     =  4.60000000
atom    1   Tr[ns(na)] (up, down, total) =   5.00151  1.67748  6.67899
   spin  1
    eigenvalues: 
  0.999  0.999  1.001  1.002  1.002
    eigenvectors:
  0.004  0.995  0.000  0.001  0.000
  0.001  0.000  0.333  0.000  0.666
  0.000  0.000  0.333  0.504  0.162
  0.995  0.004  0.000  0.000  0.001
  0.000  0.001  0.333  0.495  0.171
    occupations:
  0.999 -0.000 -0.000  0.000 -0.000
 -0.000  1.001 -0.000 -0.000  0.000
 -0.000 -0.000  1.001  0.000  0.000
  0.000 -0.000  0.000  0.999 -0.000
 -0.000  0.000  0.000 -0.000  1.001
   spin  2
    eigenvalues: 
  0.179  0.179  0.221  0.221  0.878
    eigenvectors:
  0.160  0.000  0.106  0.734  0.000
  0.138  0.422  0.043  0.064  0.333
  0.142  0.417  0.104  0.003  0.333
  0.000  0.160  0.734  0.106  0.000
  0.560  0.000  0.013  0.093  0.333
    occupations:
  0.214 -0.006 -0.006  0.000 -0.013
 -0.006  0.416  0.231 -0.011 -0.231
 -0.006  0.231  0.416  0.011 -0.231
  0.000 -0.011  0.011  0.214 -0.000
 -0.013 -0.231 -0.231 -0.000  0.416
atomic mag. moment =   3.32403
atom    2   Tr[ns(na)] (up, down, total) =   1.53455  4.99974  6.53429
   spin  1
    eigenvalues: 
  0.164  0.164  0.207  0.207  0.791
    eigenvectors:
  0.127  0.002  0.137  0.734  0.000
  0.204  0.377  0.031  0.055  0.333
  0.094  0.487  0.085  0.001  0.333
  0.002  0.127  0.734  0.137  0.000
  0.574  0.007  0.014  0.072  0.333
    occupations:
  0.202 -0.006 -0.006  0.000 -0.012
 -0.006  0.377  0.207 -0.010 -0.207
 -0.006  0.207  0.377  0.010 -0.207
  0.000 -0.010  0.010  0.202 -0.000
 -0.012 -0.207 -0.207 -0.000  0.377
   spin  2
    eigenvalues: 
  0.998  0.998  1.001  1.001  1.001
    eigenvectors:
  0.006  0.993  0.000  0.001  0.000
  0.001  0.000  0.333  0.003  0.663
  0.001  0.000  0.333  0.534  0.131
  0.993  0.006  0.000  0.000  0.001
  0.000  0.001  0.333  0.462  0.204
    occupations:
  0.998 -0.000 -0.000  0.000 -0.000
 -0.000  1.001 -0.000 -0.000  0.000
 -0.000 -0.000  1.001  0.000  0.000
  0.000 -0.000  0.000  0.998 -0.000
 -0.000  0.000  0.000 -0.000  1.001
atomic mag. moment =  -3.46519
N of occupied +U levels =   13.213282
 --- exit write_ns ---

     negative rho (up, down):  3.148E-04 3.260E-04
 --- in v_hubbard ---
Hubbard energy    0.3353
 -------

     total cpu time spent up to now is       12.4 secs

     total energy              =    -735.07050517 Ry
     estimated scf accuracy    <       0.10434060 Ry

     total magnetization       =    -0.11 Bohr mag/cell
     absolute magnetization    =     7.42 Bohr mag/cell

     iteration #  7     ecut=    30.00 Ry     beta= 0.30
     Davidson diagonalization with overlap
     ethr =  1.94E-04,  avg # of iterations =  1.1
 --- enter write_ns ---
 LDA+U parameters:
U( 1)     =  4.60000000
U( 2)     =  4.60000000
atom    1   Tr[ns(na)] (up, down, total) =   5.00156  1.67418  6.67574
   spin  1
    eigenvalues: 
  0.999  0.999  1.001  1.002  1.002
    eigenvectors:
  0.181  0.818  0.000  0.000  0.000
  0.000  0.000  0.333  0.000  0.666
  0.000  0.000  0.333  0.504  0.162
  0.818  0.181  0.000  0.000  0.000
  0.000  0.000  0.333  0.495  0.171
    occupations:
  0.999 -0.000 -0.000  0.000 -0.000
 -0.000  1.001 -0.000 -0.000  0.000
 -0.000 -0.000  1.001  0.000  0.000
  0.000 -0.000  0.000  0.999 -0.000
 -0.000  0.000  0.000 -0.000  1.001
   spin  2
    eigenvalues: 
  0.142  0.142  0.224  0.224  0.944
    eigenvectors:
  0.007  0.001  0.057  0.936  0.000
  0.042  0.620  0.003  0.002  0.333
  0.336  0.325  0.005  0.000  0.333
  0.001  0.007  0.936  0.057  0.000
  0.614  0.047  0.000  0.005  0.333
    occupations:
  0.223 -0.003 -0.003  0.000 -0.006
 -0.003  0.409  0.267 -0.005 -0.267
 -0.003  0.267  0.409  0.005 -0.267
  0.000 -0.005  0.005  0.223 -0.000
 -0.006 -0.267 -0.267 -0.000  0.409
atomic mag. moment =   3.32738
atom    2   Tr[ns(na)] (up, down, total) =   1.56111  4.99892  6.56003
   spin  1
    eigenvalues: 
  0.140  0.140  0.207  0.207  0.866
    eigenvectors:
  0.025  0.000  0.113  0.862  0.000
  0.132  0.517  0.007  0.010  0.333
  0.194  0.455  0.016  0.001  0.333
  0.000  0.025  0.862  0.113  0.000
  0.648  0.002  0.002  0.015  0.333
    occupations:
  0.206 -0.004 -0.004  0.000 -0.009
 -0.004  0.383  0.242 -0.007 -0.242
 -0.004  0.242  0.383  0.007 -0.242
  0.000 -0.007  0.007  0.206 -0.000
 -0.009 -0.242 -0.242 -0.000  0.383
   spin  2
    eigenvalues: 
  0.998  0.998  1.001  1.001  1.001
    eigenvectors:
  0.066  0.933  0.000  0.001  0.000
  0.001  0.000  0.333  0.002  0.664
  0.000  0.000  0.333  0.531  0.135
  0.933  0.066  0.000  0.000  0.001
  0.000  0.001  0.333  0.465  0.201
    occupations:
  0.998 -0.000 -0.000  0.000 -0.000
 -0.000  1.001 -0.000 -0.000  0.000
 -0.000 -0.000  1.001  0.000  0.000
  0.000 -0.000  0.000  0.998 -0.000
 -0.000  0.000  0.000 -0.000  1.001
atomic mag. moment =  -3.43782
N of occupied +U levels =   13.235767
 --- exit write_ns ---

     negative rho (up, down):  3.008E-04 3.269E-04
 --- in v_hubbard ---
Hubbard energy    0.3261
 -------

     total cpu time spent up to now is       14.1 secs

     total energy              =    -735.10145785 Ry
     estimated scf accuracy    <       0.11762962 Ry

     total magnetization       =    -0.07 Bohr mag/cell
     absolute magnetization    =     7.40 Bohr mag/cell

     iteration #  8     ecut=    30.00 Ry     beta= 0.30
     Davidson diagonalization with overlap
     ethr =  1.94E-04,  avg # of iterations =  1.0
 --- enter write_ns ---
 LDA+U parameters:
U( 1)     =  4.60000000
U( 2)     =  4.60000000
atom    1   Tr[ns(na)] (up, down, total) =   5.00190  1.61844  6.62033
   spin  1
    eigenvalues: 
  0.999  0.999  1.001  1.002  1.002
    eigenvectors:
  0.194  0.806  0.000  0.000  0.000
  0.000  0.000  0.333  0.000  0.667
  0.000  0.000  0.333  0.504  0.163
  0.806  0.194  0.000  0.000  0.000
  0.000  0.000  0.333  0.496  0.171
    occupations:
  0.999 -0.000 -0.000  0.000 -0.000
 -0.000  1.001 -0.000 -0.000  0.000
 -0.000 -0.000  1.001  0.000  0.000
  0.000 -0.000  0.000  0.999 -0.000
 -0.000  0.000  0.000 -0.000  1.001
   spin  2
    eigenvalues: 
  0.108  0.108  0.219  0.219  0.964
    eigenvectors:
  0.000  0.000  0.006  0.994  0.000
  0.167  0.500  0.000  0.000  0.333
  0.167  0.500  0.000  0.000  0.333
  0.000  0.000  0.994  0.006  0.000
  0.667  0.000  0.000  0.000  0.333
    occupations:
  0.219  0.000  0.000  0.000  0.001
  0.000  0.394  0.285  0.001 -0.285
  0.000  0.285  0.394 -0.001 -0.285
  0.000  0.001 -0.001  0.219 -0.000
  0.001 -0.285 -0.285 -0.000  0.394
atomic mag. moment =   3.38346
atom    2   Tr[ns(na)] (up, down, total) =   1.54374  4.99723  6.54097
   spin  1
    eigenvalues: 
  0.111  0.111  0.195  0.195  0.932
    eigenvectors:
  0.005  0.000  0.009  0.986  0.000
  0.042  0.621  0.002  0.001  0.333
  0.336  0.327  0.003  0.001  0.333
  0.000  0.005  0.986  0.009  0.000
  0.617  0.047  0.000  0.003  0.333
    occupations:
  0.194 -0.002 -0.002  0.000 -0.005
 -0.002  0.385  0.274 -0.004 -0.274
 -0.002  0.274  0.385  0.004 -0.274
  0.000 -0.004  0.004  0.194 -0.000
 -0.005 -0.274 -0.274 -0.000  0.385
   spin  2
    eigenvalues: 
  0.998  0.998  1.000  1.001  1.001
    eigenvectors:
  0.003  0.996  0.000  0.001  0.000
  0.001  0.000  0.333  0.006  0.660
  0.001  0.000  0.333  0.444  0.222
  0.996  0.003  0.000  0.000  0.001
  0.000  0.001  0.333  0.549  0.117
    occupations:
  0.998 -0.000 -0.000  0.000 -0.000
 -0.000  1.001 -0.000 -0.000  0.000
 -0.000 -0.000  1.001  0.000  0.000
  0.000 -0.000  0.000  0.998 -0.000
 -0.000  0.000  0.000 -0.000  1.001
atomic mag. moment =  -3.45348
N of occupied +U levels =   13.161305
 --- exit write_ns ---

     negative rho (up, down):  2.858E-04 3.233E-04
 --- in v_hubbard ---
Hubbard energy    0.3096
 -------

     total cpu time spent up to now is       15.7 secs

     total energy              =    -735.12643750 Ry
     estimated scf accuracy    <       0.11132030 Ry

     total magnetization       =    -0.01 Bohr mag/cell
     absolute magnetization    =     7.43 Bohr mag/cell

     iteration #  9     ecut=    30.00 Ry     beta= 0.30
     Davidson diagonalization with overlap
     ethr =  1.94E-04,  avg # of iterations =  1.1
 --- enter write_ns ---
 LDA+U parameters:
U( 1)     =  4.60000000
U( 2)     =  4.60000000
atom    1   Tr[ns(na)] (up, down, total) =   5.00196  1.64042  6.64238
   spin  1
    eigenvalues: 
  0.999  0.999  1.001  1.002  1.002
    eigenvectors:
  0.000  1.000  0.000  0.000  0.000
  0.000  0.000  0.333  0.004  0.663
  0.000  0.000  0.333  0.541  0.126
  1.000  0.000  0.000  0.000  0.000
  0.000  0.000  0.333  0.455  0.211
    occupations:
  0.999 -0.000 -0.000  0.000 -0.000
 -0.000  1.001 -0.000 -0.000  0.000
 -0.000 -0.000  1.001  0.000  0.000
  0.000 -0.000  0.000  0.999 -0.000
 -0.000  0.000  0.000 -0.000  1.001
   spin  2
    eigenvalues: 
  0.099  0.099  0.232  0.232  0.978
    eigenvectors:
  0.002  0.001  0.009  0.988  0.000
  0.002  0.663  0.001  0.000  0.333
  0.469  0.196  0.001  0.001  0.333
  0.001  0.002  0.988  0.009  0.000
  0.527  0.138  0.000  0.002  0.333
    occupations:
  0.232  0.003  0.003  0.000  0.006
  0.003  0.392  0.293  0.005 -0.293
  0.003  0.293  0.392 -0.005 -0.293
  0.000  0.005 -0.005  0.232 -0.000
  0.006 -0.293 -0.293 -0.000  0.392
atomic mag. moment =   3.36153
atom    2   Tr[ns(na)] (up, down, total) =   1.54683  4.99606  6.54289
   spin  1
    eigenvalues: 
  0.097  0.097  0.197  0.197  0.958
    eigenvectors:
  0.000  0.000  0.052  0.948  0.000
  0.077  0.589  0.000  0.000  0.333
  0.277  0.389  0.000  0.000  0.333
  0.000  0.000  0.948  0.052  0.000
  0.646  0.021  0.000  0.000  0.333
    occupations:
  0.197 -0.001 -0.001  0.000 -0.002
 -0.001  0.384  0.287 -0.002 -0.287
 -0.001  0.287  0.384  0.002 -0.287
  0.000 -0.002  0.002  0.197 -0.000
 -0.002 -0.287 -0.287 -0.000  0.384
   spin  2
    eigenvalues: 
  0.997  0.997  0.999  1.001  1.001
    eigenvectors:
  0.002  0.997  0.000  0.001  0.000
  0.000  0.000  0.333  0.002  0.664
  0.000  0.000  0.333  0.469  0.197
  0.997  0.002  0.000  0.000  0.001
  0.000  0.000  0.333  0.528  0.138
    occupations:
  0.997 -0.000 -0.000  0.000 -0.000
 -0.000  1.001 -0.001 -0.000  0.001
 -0.000 -0.001  1.001  0.000  0.001
  0.000 -0.000  0.000  0.997 -0.000
 -0.000  0.001  0.001 -0.000  1.001
atomic mag. moment =  -3.44923
N of occupied +U levels =   13.185273
 --- exit write_ns ---

     negative rho (up, down):  2.847E-04 3.227E-04
 --- in v_hubbard ---
Hubbard energy    0.3028
 -------

     total cpu time spent up to now is       17.4 secs

     total energy              =    -735.13408381 Ry
     estimated scf accuracy    <       0.09088820 Ry

     total magnetization       =    -0.00 Bohr mag/cell
     absolute magnetization    =     7.41 Bohr mag/cell

     iteration # 10     ecut=    30.00 Ry     beta= 0.30
     Davidson diagonalization with overlap
     ethr =  1.94E-04,  avg # of iterations =  1.0
 --- enter write_ns ---
 LDA+U parameters:
U( 1)     =  4.60000000
U( 2)     =  4.60000000
atom    1   Tr[ns(na)] (up, down, total) =   5.00140  1.66173  6.66313
   spin  1
    eigenvalues: 
  0.999  0.999  1.001  1.002  1.002
    eigenvectors:
  0.017  0.982  0.000  0.001  0.000
  0.001  0.000  0.333  0.002  0.664
  0.001  0.000  0.333  0.465  0.201
  0.982  0.017  0.000  0.000  0.001
  0.000  0.001  0.333  0.532  0.134
    occupations:
  0.999 -0.000 -0.000  0.000 -0.000
 -0.000  1.001 -0.000 -0.000  0.000
 -0.000 -0.000  1.001  0.000  0.000
  0.000 -0.000  0.000  0.999 -0.000
 -0.000  0.000  0.000 -0.000  1.001
   spin  2
    eigenvalues: 
  0.097  0.097  0.234  0.234  1.001
    eigenvectors:
  0.001  0.003  0.001  0.995  0.000
  0.171  0.493  0.002  0.001  0.333
  0.664  0.000  0.002  0.001  0.333
  0.003  0.001  0.995  0.001  0.000
  0.161  0.503  0.000  0.003  0.333
    occupations:
  0.234  0.004  0.004 -0.000  0.007
  0.004  0.398  0.301  0.006 -0.301
  0.004  0.301  0.398 -0.006 -0.301
 -0.000  0.006 -0.006  0.234 -0.000
  0.007 -0.301 -0.301 -0.000  0.398
atomic mag. moment =   3.33967
atom    2   Tr[ns(na)] (up, down, total) =   1.53320  4.99715  6.53035
   spin  1
    eigenvalues: 
  0.092  0.092  0.201  0.201  0.947
    eigenvectors:
  0.000  0.000  0.267  0.733  0.000
  0.022  0.645  0.000  0.000  0.333
  0.386  0.281  0.000  0.000  0.333
  0.000  0.000  0.733  0.267  0.000
  0.592  0.075  0.000  0.000  0.333
    occupations:
  0.201  0.001  0.001  0.000  0.001
  0.001  0.377  0.285  0.001 -0.285
  0.001  0.285  0.377 -0.001 -0.285
  0.000  0.001 -0.001  0.201 -0.000
  0.001 -0.285 -0.285 -0.000  0.377
   spin  2
    eigenvalues: 
  0.998  0.998  1.000  1.001  1.001
    eigenvectors:
  0.002  0.998  0.000  0.000  0.000
  0.000  0.000  0.333  0.011  0.655
  0.000  0.000  0.333  0.419  0.248
  0.998  0.002  0.000  0.000  0.000
  0.000  0.000  0.333  0.569  0.097
    occupations:
  0.998 -0.000 -0.000  0.000 -0.000
 -0.000  1.001 -0.001 -0.000  0.001
 -0.000 -0.001  1.001  0.000  0.001
  0.000 -0.000  0.000  0.998 -0.000
 -0.000  0.001  0.001 -0.000  1.001
atomic mag. moment =  -3.46395
N of occupied +U levels =   13.193479
 --- exit write_ns ---

     negative rho (up, down):  2.744E-04 3.177E-04
 --- in v_hubbard ---
Hubbard energy    0.2755
 -------

     total cpu time spent up to now is       19.0 secs

     total energy              =    -735.15936643 Ry
     estimated scf accuracy    <       0.08514443 Ry

     total magnetization       =    -0.06 Bohr mag/cell
     absolute magnetization    =     7.40 Bohr mag/cell

     iteration # 11     ecut=    30.00 Ry     beta= 0.30
     Davidson diagonalization with overlap
     ethr =  1.94E-04,  avg # of iterations =  1.0
 --- enter write_ns ---
 LDA+U parameters:
U( 1)     =  4.60000000
U( 2)     =  4.60000000
atom    1   Tr[ns(na)] (up, down, total) =   5.00038  1.66978  6.67016
   spin  1
    eigenvalues: 
  0.999  0.999  1.000  1.002  1.002
    eigenvectors:
  0.028  0.967  0.000  0.004  0.001
  0.003  0.000  0.333  0.000  0.663
  0.002  0.001  0.333  0.503  0.160
  0.967  0.028  0.000  0.001  0.004
  0.000  0.004  0.333  0.491  0.172
    occupations:
  0.999 -0.000 -0.000  0.000 -0.000
 -0.000  1.001 -0.000 -0.000  0.000
 -0.000 -0.000  1.001  0.000  0.000
  0.000 -0.000  0.000  0.999 -0.000
 -0.000  0.000  0.000 -0.000  1.001
   spin  2
    eigenvalues: 
  0.086  0.086  0.236  0.236  1.025
    eigenvectors:
  0.000  0.008  0.196  0.796  0.000
  0.496  0.165  0.005  0.000  0.333
  0.496  0.165  0.002  0.004  0.333
  0.008  0.000  0.796  0.196  0.000
  0.000  0.661  0.001  0.004  0.333
    occupations:
  0.235  0.006  0.006 -0.000  0.011
  0.006  0.400  0.312  0.010 -0.312
  0.006  0.312  0.400 -0.010 -0.312
 -0.000  0.010 -0.010  0.235 -0.000
  0.011 -0.312 -0.312 -0.000  0.400
atomic mag. moment =   3.33061
atom    2   Tr[ns(na)] (up, down, total) =   1.50316  4.99866  6.50182
   spin  1
    eigenvalues: 
  0.082  0.082  0.201  0.201  0.938
    eigenvectors:
  0.002  0.000  0.094  0.903  0.000
  0.382  0.283  0.001  0.001  0.333
  0.023  0.642  0.002  0.000  0.333
  0.000  0.002  0.903  0.094  0.000
  0.593  0.072  0.000  0.002  0.333
    occupations:
  0.201  0.003  0.003  0.000  0.005
  0.003  0.367  0.285  0.004 -0.285
  0.003  0.285  0.367 -0.004 -0.285
  0.000  0.004 -0.004  0.201 -0.000
  0.005 -0.285 -0.285 -0.000  0.367
   spin  2
    eigenvalues: 
  0.998  0.998  1.000  1.001  1.001
    eigenvectors:
  0.010  0.987  0.000  0.002  0.001
  0.001  0.001  0.333  0.001  0.663
  0.002  0.000  0.333  0.473  0.191
  0.987  0.010  0.000  0.001  0.002
  0.000  0.002  0.333  0.522  0.142
    occupations:
  0.998  0.000  0.000  0.000  0.000
  0.000  1.001 -0.001  0.000  0.001
  0.000 -0.001  1.001 -0.000  0.001
  0.000  0.000 -0.000  0.998 -0.000
  0.000  0.001  0.001 -0.000  1.001
atomic mag. moment =  -3.49551
N of occupied +U levels =   13.171983
 --- exit write_ns ---

     negative rho (up, down):  2.740E-04 3.182E-04
 --- in v_hubbard ---
Hubbard energy    0.2738
 -------

     total cpu time spent up to now is       20.6 secs

     total energy              =    -735.16011214 Ry
     estimated scf accuracy    <       0.06375185 Ry

     total magnetization       =    -0.12 Bohr mag/cell
     absolute magnetization    =     7.40 Bohr mag/cell

     iteration # 12     ecut=    30.00 Ry     beta= 0.30
     Davidson diagonalization with overlap
     ethr =  1.45E-04,  avg # of iterations =  1.0
 --- enter write_ns ---
 LDA+U parameters:
U( 1)     =  4.60000000
U( 2)     =  4.60000000
atom    1   Tr[ns(na)] (up, down, total) =   5.00024  1.66263  6.66287
   spin  1
    eigenvalues: 
  0.999  0.999  1.000  1.002  1.002
    eigenvectors:
  0.000  0.995  0.000  0.004  0.001
  0.003  0.001  0.333  0.000  0.663
  0.003  0.001  0.333  0.502  0.161
  0.995  0.000  0.000  0.001  0.004
  0.000  0.004  0.333  0.492  0.171
    occupations:
  0.999 -0.000 -0.000  0.000 -0.000
 -0.000  1.001 -0.000 -0.000  0.000
 -0.000 -0.000  1.001  0.000  0.000
  0.000 -0.000  0.000  0.999 -0.000
 -0.000  0.000  0.000 -0.000  1.001
   spin  2
    eigenvalues: 
  0.085  0.085  0.235  0.235  1.023
    eigenvectors:
  0.001  0.007  0.026  0.965  0.000
  0.225  0.436  0.003  0.002  0.333
  0.654  0.007  0.005  0.001  0.333
  0.007  0.001  0.965  0.026  0.000
  0.112  0.549  0.000  0.006  0.333
    occupations:
  0.234  0.006  0.006 -0.000  0.011
  0.006  0.398  0.312  0.010 -0.312
  0.006  0.312  0.398 -0.010 -0.312
 -0.000  0.010 -0.010  0.234 -0.000
  0.011 -0.312 -0.312 -0.000  0.398
atomic mag. moment =   3.33761
atom    2   Tr[ns(na)] (up, down, total) =   1.50661  4.99893  6.50554
   spin  1
    eigenvalues: 
  0.081  0.081  0.202  0.202  0.941
    eigenvectors:
  0.003  0.000  0.070  0.927  0.000
  0.171  0.494  0.002  0.000  0.333
  0.162  0.503  0.001  0.001  0.333
  0.000  0.003  0.927  0.070  0.000
  0.665  0.000  0.000  0.002  0.333
    occupations:
  0.201  0.003  0.003  0.000  0.005
  0.003  0.368  0.286  0.005 -0.286
  0.003  0.286  0.368 -0.005 -0.286
  0.000  0.005 -0.005  0.201 -0.000
  0.005 -0.286 -0.286 -0.000  0.368
   spin  2
    eigenvalues: 
  0.998  0.998  1.000  1.001  1.001
    eigenvectors:
  0.171  0.825  0.000  0.003  0.001
  0.001  0.002  0.333  0.004  0.660
  0.002  0.000  0.333  0.450  0.214
  0.825  0.171  0.000  0.001  0.003
  0.000  0.002  0.333  0.542  0.122
    occupations:
  0.998  0.000  0.000  0.000  0.000
  0.000  1.001 -0.001  0.000  0.001
  0.000 -0.001  1.001 -0.000  0.001
  0.000  0.000 -0.000  0.998 -0.000
  0.000  0.001  0.001 -0.000  1.001
atomic mag. moment =  -3.49233
N of occupied +U levels =   13.168412
 --- exit write_ns ---

     negative rho (up, down):  2.805E-04 3.122E-04
 --- in v_hubbard ---
Hubbard energy    0.2715
 -------

     total cpu time spent up to now is       22.3 secs

     total energy              =    -735.16035700 Ry
     estimated scf accuracy    <       0.05921027 Ry

     total magnetization       =    -0.12 Bohr mag/cell
     absolute magnetization    =     7.41 Bohr mag/cell

     iteration # 13     ecut=    30.00 Ry     beta= 0.30
     Davidson diagonalization with overlap
     ethr =  1.35E-04,  avg # of iterations =  1.0
 --- enter write_ns ---
 LDA+U parameters:
U( 1)     =  4.60000000
U( 2)     =  4.60000000
atom    1   Tr[ns(na)] (up, down, total) =   4.99918  1.64855  6.64772
   spin  1
    eigenvalues: 
  0.998  0.998  1.000  1.001  1.001
    eigenvectors:
  0.001  0.992  0.000  0.005  0.002
  0.004  0.001  0.333  0.001  0.661
  0.004  0.001  0.333  0.512  0.150
  0.992  0.001  0.000  0.002  0.005
  0.000  0.005  0.333  0.480  0.181
    occupations:
  0.998 -0.000 -0.000  0.000 -0.000
 -0.000  1.001 -0.001 -0.000  0.001
 -0.000 -0.001  1.001  0.000  0.001
  0.000 -0.000  0.000  0.998 -0.000
 -0.000  0.001  0.001 -0.000  1.001
   spin  2
    eigenvalues: 
  0.083  0.083  0.228  0.228  1.027
    eigenvectors:
  0.000  0.009  0.000  0.990  0.000
  0.453  0.207  0.005  0.002  0.333
  0.534  0.126  0.005  0.001  0.333
  0.009  0.000  0.990  0.000  0.000
  0.003  0.657  0.000  0.006  0.333
    occupations:
  0.227  0.006  0.006 -0.000  0.011
  0.006  0.398  0.314  0.010 -0.314
  0.006  0.314  0.398 -0.010 -0.314
 -0.000  0.010 -0.010  0.227 -0.000
  0.011 -0.314 -0.314 -0.000  0.398
atomic mag. moment =   3.35063
atom    2   Tr[ns(na)] (up, down, total) =   1.51959  5.00008  6.51966
   spin  1
    eigenvalues: 
  0.082  0.082  0.208  0.208  0.940
    eigenvectors:
  0.000  0.005  0.220  0.776  0.000
  0.464  0.199  0.003  0.000  0.333
  0.529  0.135  0.001  0.002  0.333
  0.005  0.000  0.776  0.220  0.000
  0.002  0.661  0.001  0.002  0.333
    occupations:
  0.207  0.004  0.004  0.000  0.007
  0.004  0.368  0.286  0.006 -0.286
  0.004  0.286  0.368 -0.006 -0.286
  0.000  0.006 -0.006  0.207 -0.000
  0.007 -0.286 -0.286 -0.000  0.368
   spin  2
    eigenvalues: 
  0.999  0.999  1.000  1.001  1.001
    eigenvectors:
  0.048  0.949  0.000  0.003  0.000
  0.001  0.001  0.333  0.027  0.638
  0.002  0.000  0.333  0.372  0.292
  0.949  0.048  0.000  0.000  0.003
  0.000  0.002  0.333  0.598  0.067
    occupations:
  0.999  0.000  0.000  0.000  0.000
  0.000  1.001 -0.000  0.000  0.000
  0.000 -0.000  1.001 -0.000  0.000
  0.000  0.000 -0.000  0.999 -0.000
  0.000  0.000  0.000 -0.000  1.001
atomic mag. moment =  -3.48049
N of occupied +U levels =   13.167384
 --- exit write_ns ---

     negative rho (up, down):  2.893E-04 2.607E-04
 --- in v_hubbard ---
Hubbard energy    0.1602
 -------

     total cpu time spent up to now is       23.9 secs

     total energy              =    -735.18161511 Ry
     estimated scf accuracy    <       0.04711350 Ry

     total magnetization       =    -0.13 Bohr mag/cell
     absolute magnetization    =     7.40 Bohr mag/cell

     iteration # 14     ecut=    30.00 Ry     beta= 0.30
     Davidson diagonalization with overlap
     ethr =  1.07E-04,  avg # of iterations =  3.2
 --- enter write_ns ---
 LDA+U parameters:
U( 1)     =  4.60000000
U( 2)     =  4.60000000
atom    1   Tr[ns(na)] (up, down, total) =   4.98592  1.54954  6.53547
   spin  1
    eigenvalues: 
  0.993  0.993  0.996  1.002  1.002
    eigenvectors:
  0.099  0.857  0.000  0.020  0.024
  0.028  0.001  0.333  0.061  0.576
  0.013  0.017  0.333  0.609  0.028
  0.857  0.099  0.000  0.024  0.020
  0.003  0.027  0.333  0.286  0.351
    occupations:
  0.993 -0.001 -0.001  0.000 -0.001
 -0.001  1.000 -0.002 -0.001  0.002
 -0.001 -0.002  1.000  0.001  0.002
  0.000 -0.001  0.001  0.993 -0.000
 -0.001  0.002  0.002 -0.000  1.000
   spin  2
    eigenvalues: 
  0.063  0.063  0.208  0.208  1.007
    eigenvectors:
  0.002  0.015  0.010  0.972  0.000
  0.641  0.014  0.010  0.002  0.333
  0.254  0.401  0.008  0.004  0.333
  0.015  0.002  0.972  0.010  0.000
  0.088  0.567  0.000  0.012  0.333
    occupations:
  0.205  0.008  0.008 -0.000  0.016
  0.008  0.380  0.314  0.014 -0.314
  0.008  0.314  0.380 -0.014 -0.314
 -0.000  0.014 -0.014  0.205 -0.000
  0.016 -0.314 -0.314 -0.000  0.380
atomic mag. moment =   3.43638
atom    2   Tr[ns(na)] (up, down, total) =   1.63143  5.00629  6.63772
   spin  1
    eigenvalues: 
  0.073  0.073  0.247  0.247  0.991
    eigenvectors:
  0.002  0.022  0.161  0.815  0.000
  0.605  0.045  0.016  0.000  0.333
  0.329  0.322  0.006  0.010  0.333
  0.022  0.002  0.815  0.161  0.000
  0.042  0.609  0.003  0.013  0.333
    occupations:
  0.243  0.011  0.011 -0.000  0.022
  0.011  0.382  0.304  0.019 -0.304
  0.011  0.304  0.382 -0.019 -0.304
 -0.000  0.019 -0.019  0.243 -0.000
  0.022 -0.304 -0.304 -0.000  0.382
   spin  2
    eigenvalues: 
  1.001  1.001  1.001  1.002  1.002
    eigenvectors:
  0.090  0.903  0.000  0.006  0.001
  0.002  0.002  0.333  0.010  0.652
  0.004  0.000  0.333  0.422  0.240
  0.903  0.090  0.000  0.001  0.006
  0.000  0.004  0.333  0.562  0.101
    occupations:
  1.001  0.000  0.000  0.000  0.000
  0.000  1.002 -0.000  0.000  0.000
  0.000 -0.000  1.002 -0.000  0.000
  0.000  0.000 -0.000  1.001 -0.000
  0.000  0.000  0.000 -0.000  1.002
atomic mag. moment =  -3.37486
N of occupied +U levels =   13.173182
 --- exit write_ns ---

     negative rho (up, down):  2.917E-04 2.643E-04
 --- in v_hubbard ---
Hubbard energy    0.1742
 -------

     total cpu time spent up to now is       25.7 secs

     total energy              =    -735.19197946 Ry
     estimated scf accuracy    <       0.01788287 Ry

     total magnetization       =    -0.12 Bohr mag/cell
     absolute magnetization    =     7.42 Bohr mag/cell

     iteration # 15     ecut=    30.00 Ry     beta= 0.30
     Davidson diagonalization with overlap
     ethr =  4.06E-05,  avg # of iterations =  1.0
 --- enter write_ns ---
 LDA+U parameters:
U( 1)     =  4.60000000
U( 2)     =  4.60000000
atom    1   Tr[ns(na)] (up, down, total) =   4.98788  1.55812  6.54600
   spin  1
    eigenvalues: 
  0.994  0.994  0.996  1.002  1.002
    eigenvectors:
  0.247  0.700  0.000  0.027  0.026
  0.035  0.000  0.333  0.041  0.591
  0.008  0.027  0.333  0.587  0.044
  0.700  0.247  0.000  0.026  0.027
  0.009  0.026  0.333  0.319  0.312
    occupations:
  0.994 -0.001 -0.001  0.000 -0.001
 -0.001  1.000 -0.002 -0.001  0.002
 -0.001 -0.002  1.000  0.001  0.002
  0.000 -0.001  0.001  0.994 -0.000
 -0.001  0.002  0.002 -0.000  1.000
   spin  2
    eigenvalues: 
  0.065  0.065  0.210  0.210  1.008
    eigenvectors:
  0.004  0.013  0.139  0.844  0.000
  0.162  0.493  0.011  0.000  0.333
  0.655  0.000  0.004  0.007  0.333
  0.013  0.004  0.844  0.139  0.000
  0.165  0.490  0.002  0.010  0.333
    occupations:
  0.208  0.008  0.008 -0.000  0.016
  0.008  0.381  0.314  0.014 -0.314
  0.008  0.314  0.381 -0.014 -0.314
 -0.000  0.014 -0.014  0.208 -0.000
  0.016 -0.314 -0.314 -0.000  0.381
atomic mag. moment =   3.42977
atom    2   Tr[ns(na)] (up, down, total) =   1.61940  5.00579  6.62519
   spin  1
    eigenvalues: 
  0.074  0.074  0.242  0.242  0.988
    eigenvectors:
  0.016  0.006  0.100  0.878  0.000
  0.000  0.652  0.014  0.001  0.333
  0.498  0.154  0.006  0.008  0.333
  0.006  0.016  0.878  0.100  0.000
  0.480  0.172  0.001  0.013  0.333
    occupations:
  0.238  0.010  0.010 -0.000  0.020
  0.010  0.381  0.304  0.017 -0.304
  0.010  0.304  0.381 -0.017 -0.304
 -0.000  0.017 -0.017  0.238 -0.000
  0.020 -0.304 -0.304 -0.000  0.381
   spin  2
    eigenvalues: 
  1.001  1.001  1.001  1.002  1.002
    eigenvectors:
  0.029  0.970  0.000  0.000  0.000
  0.000  0.000  0.333  0.015  0.651
  0.000  0.000  0.333  0.406  0.260
  0.970  0.029  0.000  0.000  0.000
  0.000  0.000  0.333  0.578  0.088
    occupations:
  1.001 -0.000 -0.000  0.000 -0.000
 -0.000  1.001 -0.000 -0.000  0.000
 -0.000 -0.000  1.001  0.000  0.000
  0.000 -0.000  0.000  1.001 -0.000
 -0.000  0.000  0.000 -0.000  1.001
atomic mag. moment =  -3.38638
N of occupied +U levels =   13.171191
 --- exit write_ns ---

     negative rho (up, down):  2.945E-04 2.591E-04
 --- in v_hubbard ---
Hubbard energy    0.1645
 -------

     total cpu time spent up to now is       27.3 secs

     total energy              =    -735.19233274 Ry
     estimated scf accuracy    <       0.01255766 Ry

     total magnetization       =    -0.12 Bohr mag/cell
     absolute magnetization    =     7.41 Bohr mag/cell

     iteration # 16     ecut=    30.00 Ry     beta= 0.30
     Davidson diagonalization with overlap
     ethr =  2.85E-05,  avg # of iterations =  1.0
 --- enter write_ns ---
 LDA+U parameters:
U( 1)     =  4.60000000
U( 2)     =  4.60000000
atom    1   Tr[ns(na)] (up, down, total) =   4.98642  1.55225  6.53867
   spin  1
    eigenvalues: 
  0.993  0.993  0.996  1.002  1.002
    eigenvectors:
  0.186  0.768  0.000  0.034  0.012
  0.031  0.000  0.333  0.000  0.636
  0.009  0.021  0.333  0.484  0.152
  0.768  0.186  0.000  0.012  0.034
  0.006  0.025  0.333  0.470  0.166
    occupations:
  0.994 -0.001 -0.001  0.000 -0.001
 -0.001  1.000 -0.002 -0.001  0.002
 -0.001 -0.002  1.000  0.001  0.002
  0.000 -0.001  0.001  0.994 -0.000
 -0.001  0.002  0.002 -0.000  1.000
   spin  2
    eigenvalues: 
  0.063  0.063  0.209  0.209  1.007
    eigenvectors:
  0.000  0.018  0.558  0.424  0.000
  0.430  0.225  0.000  0.011  0.333
  0.546  0.109  0.011  0.001  0.333
  0.018  0.000  0.424  0.558  0.000
  0.007  0.648  0.007  0.005  0.333
    occupations:
  0.207  0.008  0.008 -0.000  0.016
  0.008  0.380  0.314  0.014 -0.314
  0.008  0.314  0.380 -0.014 -0.314
 -0.000  0.014 -0.014  0.207 -0.000
  0.016 -0.314 -0.314 -0.000  0.380
atomic mag. moment =   3.43417
atom    2   Tr[ns(na)] (up, down, total) =   1.62792  5.00628  6.63420
   spin  1
    eigenvalues: 
  0.073  0.073  0.246  0.246  0.990
    eigenvectors:
  0.010  0.014  0.479  0.497  0.000
  0.631  0.020  0.014  0.001  0.333
  0.075  0.576  0.001  0.014  0.333
  0.014  0.010  0.497  0.479  0.000
  0.270  0.381  0.008  0.008  0.333
    occupations:
  0.242  0.011  0.011 -0.000  0.021
  0.011  0.382  0.304  0.018 -0.304
  0.011  0.304  0.382 -0.018 -0.304
 -0.000  0.018 -0.018  0.242 -0.000
  0.021 -0.304 -0.304 -0.000  0.382
   spin  2
    eigenvalues: 
  1.001  1.001  1.001  1.002  1.002
    eigenvectors:
  0.000  0.093  0.904  0.002  0.000
  0.333  0.001  0.001  0.010  0.655
  0.333  0.002  0.000  0.425  0.240
  0.000  0.904  0.093  0.000  0.002
  0.333  0.000  0.002  0.562  0.102
    occupations:
  1.001  0.000  0.000  0.000  0.000
  0.000  1.001 -0.000  0.000  0.000
  0.000 -0.000  1.001 -0.000  0.000
  0.000  0.000 -0.000  1.001 -0.000
  0.000  0.000  0.000 -0.000  1.001
atomic mag. moment =  -3.37836
N of occupied +U levels =   13.172874
 --- exit write_ns ---

     negative rho (up, down):  2.922E-04 2.566E-04
 --- in v_hubbard ---
Hubbard energy    0.1417
 -------

     total cpu time spent up to now is       28.9 secs

     total energy              =    -735.19204235 Ry
     estimated scf accuracy    <       0.01647240 Ry

     total magnetization       =    -0.12 Bohr mag/cell
     absolute magnetization    =     7.42 Bohr mag/cell

     iteration # 17     ecut=    30.00 Ry     beta= 0.30
     Davidson diagonalization with overlap
     ethr =  2.85E-05,  avg # of iterations =  1.0
 --- enter write_ns ---
 LDA+U parameters:
U( 1)     =  4.60000000
U( 2)     =  4.60000000
atom    1   Tr[ns(na)] (up, down, total) =   4.98605  1.55137  6.53742
   spin  1
    eigenvalues: 
  0.993  0.993  0.997  1.002  1.002
    eigenvectors:
  0.274  0.687  0.000  0.029  0.010
  0.026  0.000  0.333  0.000  0.641
  0.006  0.020  0.333  0.486  0.155
  0.687  0.274  0.000  0.010  0.029
  0.007  0.018  0.333  0.475  0.166
    occupations:
  0.993 -0.001 -0.001  0.000 -0.001
 -0.001  1.000 -0.002 -0.001  0.002
 -0.001 -0.002  1.000  0.001  0.002
  0.000 -0.001  0.001  0.993 -0.000
 -0.001  0.002  0.002 -0.000  1.000
   spin  2
    eigenvalues: 
  0.062  0.062  0.211  0.211  1.005
    eigenvectors:
  0.000  0.019  0.801  0.180  0.000
  0.475  0.179  0.009  0.004  0.333
  0.505  0.149  0.000  0.013  0.333
  0.019  0.000  0.180  0.801  0.000
  0.000  0.653  0.010  0.002  0.333
    occupations:
  0.209  0.008  0.008 -0.000  0.017
  0.008  0.378  0.313  0.015 -0.313
  0.008  0.313  0.378 -0.015 -0.313
 -0.000  0.015 -0.015  0.209 -0.000
  0.017 -0.313 -0.313 -0.000  0.378
atomic mag. moment =   3.43469
atom    2   Tr[ns(na)] (up, down, total) =   1.62692  5.00660  6.63353
   spin  1
    eigenvalues: 
  0.071  0.071  0.246  0.246  0.994
    eigenvectors:
  0.004  0.020  0.191  0.785  0.000
  0.219  0.432  0.016  0.000  0.333
  0.644  0.006  0.005  0.011  0.333
  0.020  0.004  0.785  0.191  0.000
  0.112  0.538  0.003  0.013  0.333
    occupations:
  0.241  0.011  0.011 -0.000  0.022
  0.011  0.381  0.306  0.019 -0.306
  0.011  0.306  0.381 -0.019 -0.306
 -0.000  0.019 -0.019  0.241 -0.000
  0.022 -0.306 -0.306 -0.000  0.381
   spin  2
    eigenvalues: 
  1.001  1.001  1.001  1.002  1.002
    eigenvectors:
  0.000  0.000  0.995  0.004  0.001
  0.333  0.002  0.001  0.006  0.658
  0.333  0.002  0.001  0.442  0.222
  0.000  0.995  0.000  0.001  0.004
  0.333  0.000  0.003  0.548  0.116
    occupations:
  1.001 -0.000 -0.000  0.000 -0.000
 -0.000  1.001 -0.000 -0.000  0.000
 -0.000 -0.000  1.001  0.000  0.000
  0.000 -0.000  0.000  1.001 -0.000
 -0.000  0.000  0.000 -0.000  1.001
atomic mag. moment =  -3.37968
N of occupied +U levels =   13.170944
 --- exit write_ns ---

     negative rho (up, down):  2.927E-04 2.582E-04
 --- in v_hubbard ---
Hubbard energy    0.1495
 -------

     total cpu time spent up to now is       30.6 secs

     total energy              =    -735.19260952 Ry
     estimated scf accuracy    <       0.01631491 Ry

     total magnetization       =    -0.12 Bohr mag/cell
     absolute magnetization    =     7.41 Bohr mag/cell

     iteration # 18     ecut=    30.00 Ry     beta= 0.30
     Davidson diagonalization with overlap
     ethr =  2.85E-05,  avg # of iterations =  1.0
 --- enter write_ns ---
 LDA+U parameters:
U( 1)     =  4.60000000
U( 2)     =  4.60000000
atom    1   Tr[ns(na)] (up, down, total) =   4.98656  1.55397  6.54053
   spin  1
    eigenvalues: 
  0.993  0.993  0.997  1.002  1.002
    eigenvectors:
  0.208  0.750  0.000  0.021  0.020
  0.028  0.000  0.333  0.040  0.599
  0.008  0.020  0.333  0.593  0.046
  0.750  0.208  0.000  0.020  0.021
  0.006  0.022  0.333  0.325  0.314
    occupations:
  0.993 -0.001 -0.001  0.000 -0.001
 -0.001  1.000 -0.002 -0.001  0.002
 -0.001 -0.002  1.000  0.001  0.002
  0.000 -0.001  0.001  0.993 -0.000
 -0.001  0.002  0.002 -0.000  1.000
   spin  2
    eigenvalues: 
  0.062  0.062  0.212  0.212  1.006
    eigenvectors:
  0.019  0.000  0.143  0.838  0.000
  0.145  0.509  0.012  0.000  0.333
  0.182  0.472  0.005  0.008  0.333
  0.000  0.019  0.838  0.143  0.000
  0.653  0.001  0.002  0.011  0.333
    occupations:
  0.209  0.008  0.008 -0.000  0.017
  0.008  0.379  0.313  0.014 -0.313
  0.008  0.313  0.379 -0.014 -0.313
 -0.000  0.014 -0.014  0.209 -0.000
  0.017 -0.313 -0.313 -0.000  0.379
atomic mag. moment =   3.43259
atom    2   Tr[ns(na)] (up, down, total) =   1.62036  5.00645  6.62681
   spin  1
    eigenvalues: 
  0.071  0.071  0.243  0.243  0.993
    eigenvectors:
  0.000  0.024  0.220  0.757  0.000
  0.515  0.136  0.016  0.000  0.333
  0.460  0.191  0.004  0.012  0.333
  0.024  0.000  0.757  0.220  0.000
  0.002  0.649  0.004  0.012  0.333
    occupations:
  0.239  0.011  0.011 -0.000  0.021
  0.011  0.381  0.306  0.019 -0.306
  0.011  0.306  0.381 -0.019 -0.306
 -0.000  0.019 -0.019  0.239 -0.000
  0.021 -0.306 -0.306 -0.000  0.381
   spin  2
    eigenvalues: 
  1.001  1.001  1.001  1.002  1.002
    eigenvectors:
  0.000  0.019  0.969  0.009  0.003
  0.333  0.005  0.003  0.000  0.658
  0.333  0.007  0.001  0.494  0.164
  0.000  0.969  0.019  0.003  0.009
  0.333  0.000  0.008  0.493  0.165
    occupations:
  1.001 -0.000 -0.000  0.000 -0.000
 -0.000  1.001 -0.000 -0.000  0.000
 -0.000 -0.000  1.001  0.000  0.000
  0.000 -0.000  0.000  1.001 -0.000
 -0.000  0.000  0.000 -0.000  1.001
atomic mag. moment =  -3.38609
N of occupied +U levels =   13.167340
 --- exit write_ns ---

     negative rho (up, down):  2.737E-04 2.747E-04
 --- in v_hubbard ---
Hubbard energy    0.1634
 -------

     total cpu time spent up to now is       32.2 secs

     total energy              =    -735.19001810 Ry
     estimated scf accuracy    <       0.01296017 Ry

     total magnetization       =    -0.12 Bohr mag/cell
     absolute magnetization    =     7.41 Bohr mag/cell

     iteration # 19     ecut=    30.00 Ry     beta= 0.30
     Davidson diagonalization with overlap
     ethr =  2.85E-05,  avg # of iterations =  2.3
 --- enter write_ns ---
 LDA+U parameters:
U( 1)     =  4.60000000
U( 2)     =  4.60000000
atom    1   Tr[ns(na)] (up, down, total) =   4.99805  1.58753  6.58558
   spin  1
    eigenvalues: 
  0.997  0.997  0.999  1.002  1.002
    eigenvectors:
  0.459  0.464  0.000  0.047  0.030
  0.048  0.003  0.333  0.013  0.602
  0.003  0.048  0.333  0.533  0.083
  0.464  0.459  0.000  0.030  0.047
  0.025  0.026  0.333  0.377  0.238
    occupations:
  0.998 -0.000 -0.000  0.000 -0.001
 -0.000  1.001 -0.001 -0.001  0.001
 -0.000 -0.001  1.001  0.001  0.001
  0.000 -0.001  0.001  0.998 -0.000
 -0.001  0.001  0.001 -0.000  1.001
   spin  2
    eigenvalues: 
  0.067  0.067  0.228  0.228  0.999
    eigenvectors:
  0.000  0.020  0.001  0.979  0.000
  0.422  0.231  0.011  0.003  0.333
  0.549  0.104  0.010  0.004  0.333
  0.020  0.000  0.979  0.001  0.000
  0.008  0.645  0.000  0.014  0.333
    occupations:
  0.224  0.009  0.009 -0.000  0.019
  0.009  0.380  0.310  0.016 -0.310
  0.009  0.310  0.380 -0.016 -0.310
 -0.000  0.016 -0.016  0.224 -0.000
  0.019 -0.310 -0.310 -0.000  0.380
atomic mag. moment =   3.41052
atom    2   Tr[ns(na)] (up, down, total) =   1.57077  4.99960  6.57036
   spin  1
    eigenvalues: 
  0.067  0.067  0.221  0.221  0.995
    eigenvectors:
  0.005  0.013  0.157  0.824  0.000
  0.144  0.510  0.012  0.000  0.333
  0.653  0.001  0.004  0.008  0.333
  0.013  0.005  0.824  0.157  0.000
  0.183  0.471  0.002  0.010  0.333
    occupations:
  0.218  0.009  0.009 -0.000  0.017
  0.009  0.378  0.309  0.015 -0.309
  0.009  0.309  0.378 -0.015 -0.309
 -0.000  0.015 -0.015  0.218 -0.000
  0.017 -0.309 -0.309 -0.000  0.378
   spin  2
    eigenvalues: 
  0.998  0.998  0.999  1.002  1.002
    eigenvectors:
  0.641  0.265  0.000  0.053  0.041
  0.049  0.013  0.333  0.023  0.582
  0.000  0.062  0.333  0.541  0.063
  0.265  0.641  0.000  0.041  0.053
  0.044  0.018  0.333  0.343  0.261
    occupations:
  0.999 -0.000 -0.000  0.000 -0.001
 -0.000  1.001 -0.001 -0.001  0.001
 -0.000 -0.001  1.001  0.001  0.001
  0.000 -0.001  0.001  0.999 -0.000
 -0.001  0.001  0.001 -0.000  1.001
atomic mag. moment =  -3.42883
N of occupied +U levels =   13.155939
 --- exit write_ns ---

     negative rho (up, down):  2.748E-04 2.709E-04
 --- in v_hubbard ---
Hubbard energy    0.1640
 -------

     total cpu time spent up to now is       34.0 secs

     total energy              =    -735.19272106 Ry
     estimated scf accuracy    <       0.00042825 Ry

     total magnetization       =    -0.02 Bohr mag/cell
     absolute magnetization    =     7.39 Bohr mag/cell

     iteration # 20     ecut=    30.00 Ry     beta= 0.30
     Davidson diagonalization with overlap
     ethr =  9.73E-07,  avg # of iterations =  2.8
 --- enter write_ns ---
 LDA+U parameters:
U( 1)     =  4.60000000
U( 2)     =  4.60000000
atom    1   Tr[ns(na)] (up, down, total) =   4.99636  1.58328  6.57964
   spin  1
    eigenvalues: 
  0.997  0.997  0.999  1.002  1.002
    eigenvectors:
  0.361  0.567  0.000  0.040  0.032
  0.047  0.001  0.333  0.026  0.592
  0.006  0.041  0.333  0.559  0.059
  0.567  0.361  0.000  0.032  0.040
  0.019  0.029  0.333  0.342  0.276
    occupations:
  0.997 -0.001 -0.001  0.000 -0.001
 -0.001  1.001 -0.001 -0.001  0.001
 -0.001 -0.001  1.001  0.001  0.001
  0.000 -0.001  0.001  0.997 -0.000
 -0.001  0.001  0.001 -0.000  1.001
   spin  2
    eigenvalues: 
  0.066  0.066  0.225  0.225  1.000
    eigenvectors:
  0.000  0.020  0.028  0.952  0.000
  0.519  0.134  0.012  0.002  0.333
  0.459  0.195  0.008  0.005  0.333
  0.020  0.000  0.952  0.028  0.000
  0.002  0.651  0.000  0.013  0.333
    occupations:
  0.222  0.009  0.009 -0.000  0.018
  0.009  0.380  0.310  0.016 -0.310
  0.009  0.310  0.380 -0.016 -0.310
 -0.000  0.016 -0.016  0.222 -0.000
  0.018 -0.310 -0.310 -0.000  0.380
atomic mag. moment =   3.41309
atom    2   Tr[ns(na)] (up, down, total) =   1.57828  5.00108  6.57936
   spin  1
    eigenvalues: 
  0.067  0.067  0.225  0.225  0.994
    eigenvectors:
  0.000  0.020  0.011  0.969  0.000
  0.475  0.178  0.011  0.002  0.333
  0.505  0.149  0.009  0.005  0.333
  0.020  0.000  0.969  0.011  0.000
  0.000  0.653  0.000  0.013  0.333
    occupations:
  0.222  0.009  0.009 -0.000  0.018
  0.009  0.378  0.308  0.016 -0.308
  0.009  0.308  0.378 -0.016 -0.308
 -0.000  0.016 -0.016  0.222 -0.000
  0.018 -0.308 -0.308 -0.000  0.378
   spin  2
    eigenvalues: 
  0.999  0.999  0.999  1.002  1.002
    eigenvectors:
  0.201  0.698  0.000  0.043  0.058
  0.068  0.000  0.333  0.064  0.535
  0.019  0.049  0.333  0.578  0.021
  0.698  0.201  0.000  0.058  0.043
  0.015  0.052  0.333  0.257  0.342
    occupations:
  0.999 -0.000 -0.000  0.000 -0.001
 -0.000  1.001 -0.001 -0.001  0.001
 -0.000 -0.001  1.001  0.001  0.001
  0.000 -0.001  0.001  0.999 -0.000
 -0.001  0.001  0.001 -0.000  1.001
atomic mag. moment =  -3.42280
N of occupied +U levels =   13.159002
 --- exit write_ns ---

     negative rho (up, down):  2.752E-04 2.708E-04
 --- in v_hubbard ---
Hubbard energy    0.1626
 -------

     total cpu time spent up to now is       35.7 secs

     total energy              =    -735.19283128 Ry
     estimated scf accuracy    <       0.00007215 Ry

     total magnetization       =    -0.04 Bohr mag/cell
     absolute magnetization    =     7.39 Bohr mag/cell

     iteration # 21     ecut=    30.00 Ry     beta= 0.30
     Davidson diagonalization with overlap
     ethr =  1.64E-07,  avg # of iterations =  2.0
 --- enter write_ns ---
 LDA+U parameters:
U( 1)     =  4.60000000
U( 2)     =  4.60000000
atom    1   Tr[ns(na)] (up, down, total) =   4.99644  1.58255  6.57899
   spin  1
    eigenvalues: 
  0.997  0.997  0.999  1.002  1.002
    eigenvectors:
  0.240  0.688  0.000  0.035  0.037
  0.048  0.000  0.333  0.046  0.573
  0.012  0.036  0.333  0.581  0.037
  0.688  0.240  0.000  0.037  0.035
  0.012  0.035  0.333  0.301  0.318
    occupations:
  0.997 -0.001 -0.001  0.000 -0.001
 -0.001  1.001 -0.001 -0.001  0.001
 -0.001 -0.001  1.001  0.001  0.001
  0.000 -0.001  0.001  0.997 -0.000
 -0.001  0.001  0.001 -0.000  1.001
   spin  2
    eigenvalues: 
  0.066  0.066  0.225  0.225  1.000
    eigenvectors:
  0.000  0.020  0.031  0.948  0.000
  0.399  0.254  0.008  0.006  0.333
  0.566  0.087  0.012  0.002  0.333
  0.020  0.000  0.948  0.031  0.000
  0.015  0.639  0.000  0.013  0.333
    occupations:
  0.222  0.009  0.009 -0.000  0.018
  0.009  0.380  0.310  0.016 -0.310
  0.009  0.310  0.380 -0.016 -0.310
 -0.000  0.016 -0.016  0.222 -0.000
  0.018 -0.310 -0.310 -0.000  0.380
atomic mag. moment =   3.41390
atom    2   Tr[ns(na)] (up, down, total) =   1.58086  5.00089  6.58175
   spin  1
    eigenvalues: 
  0.067  0.067  0.226  0.226  0.995
    eigenvectors:
  0.016  0.005  0.103  0.876  0.000
  0.000  0.653  0.013  0.001  0.333
  0.482  0.171  0.006  0.008  0.333
  0.005  0.016  0.876  0.103  0.000
  0.497  0.156  0.001  0.012  0.333
    occupations:
  0.223  0.009  0.009 -0.000  0.018
  0.009  0.378  0.308  0.016 -0.308
  0.009  0.308  0.378 -0.016 -0.308
 -0.000  0.016 -0.016  0.223 -0.000
  0.018 -0.308 -0.308 -0.000  0.378
   spin  2
    eigenvalues: 
  0.999  0.999  0.999  1.002  1.002
    eigenvectors:
  0.419  0.484  0.000  0.043  0.055
  0.062  0.003  0.333  0.062  0.540
  0.006  0.060  0.333  0.578  0.023
  0.484  0.419  0.000  0.055  0.043
  0.030  0.035  0.333  0.262  0.339
    occupations:
  0.999 -0.000 -0.000  0.000 -0.001
 -0.000  1.001 -0.001 -0.001  0.001
 -0.000 -0.001  1.001  0.001  0.001
  0.000 -0.001  0.001  0.999 -0.000
 -0.001  0.001  0.001 -0.000  1.001
atomic mag. moment =  -3.42003
N of occupied +U levels =   13.160736
 --- exit write_ns ---

     negative rho (up, down):  2.747E-04 2.720E-04
 --- in v_hubbard ---
Hubbard energy    0.1621
 -------

     total cpu time spent up to now is       37.4 secs

     total energy              =    -735.19285802 Ry
     estimated scf accuracy    <       0.00004098 Ry

     total magnetization       =    -0.04 Bohr mag/cell
     absolute magnetization    =     7.38 Bohr mag/cell

     iteration # 22     ecut=    30.00 Ry     beta= 0.30
     Davidson diagonalization with overlap
     ethr =  9.31E-08,  avg # of iterations =  1.8
 --- enter write_ns ---
 LDA+U parameters:
U( 1)     =  4.60000000
U( 2)     =  4.60000000
atom    1   Tr[ns(na)] (up, down, total) =   4.99717  1.58225  6.57941
   spin  1
    eigenvalues: 
  0.997  0.997  0.999  1.002  1.002
    eigenvectors:
  0.252  0.673  0.000  0.036  0.039
  0.050  0.000  0.333  0.046  0.571
  0.011  0.039  0.333  0.580  0.037
  0.673  0.252  0.000  0.039  0.036
  0.014  0.036  0.333  0.299  0.317
    occupations:
  0.998 -0.001 -0.001  0.000 -0.001
 -0.001  1.001 -0.001 -0.001  0.001
 -0.001 -0.001  1.001  0.001  0.001
  0.000 -0.001  0.001  0.998 -0.000
 -0.001  0.001  0.001 -0.000  1.001
   spin  2
    eigenvalues: 
  0.067  0.067  0.225  0.225  0.999
    eigenvectors:
  0.002  0.019  0.246  0.733  0.000
  0.619  0.034  0.014  0.000  0.333
  0.305  0.348  0.003  0.010  0.333
  0.019  0.002  0.733  0.246  0.000
  0.055  0.598  0.003  0.010  0.333
    occupations:
  0.222  0.009  0.009 -0.000  0.018
  0.009  0.380  0.310  0.016 -0.310
  0.009  0.310  0.380 -0.016 -0.310
 -0.000  0.016 -0.016  0.222 -0.000
  0.018 -0.310 -0.310 -0.000  0.380
atomic mag. moment =   3.41492
atom    2   Tr[ns(na)] (up, down, total) =   1.57938  5.00015  6.57953
   spin  1
    eigenvalues: 
  0.067  0.067  0.225  0.225  0.995
    eigenvectors:
  0.000  0.020  0.007  0.972  0.000
  0.423  0.229  0.011  0.002  0.333
  0.548  0.105  0.009  0.005  0.333
  0.020  0.000  0.972  0.007  0.000
  0.008  0.645  0.000  0.014  0.333
    occupations:
  0.222  0.009  0.009 -0.000  0.018
  0.009  0.379  0.308  0.016 -0.308
  0.009  0.308  0.379 -0.016 -0.308
 -0.000  0.016 -0.016  0.222 -0.000
  0.018 -0.308 -0.308 -0.000  0.379
   spin  2
    eigenvalues: 
  0.998  0.998  0.999  1.002  1.002
    eigenvectors:
  0.424  0.483  0.000  0.056  0.037
  0.059  0.003  0.333  0.016  0.589
  0.005  0.057  0.333  0.529  0.076
  0.483  0.424  0.000  0.037  0.056
  0.029  0.033  0.333  0.362  0.242
    occupations:
  0.999 -0.000 -0.000  0.000 -0.001
 -0.000  1.001 -0.001 -0.001  0.001
 -0.000 -0.001  1.001  0.001  0.001
  0.000 -0.001  0.001  0.999 -0.000
 -0.001  0.001  0.001 -0.000  1.001
atomic mag. moment =  -3.42077
N of occupied +U levels =   13.158948
 --- exit write_ns ---

     negative rho (up, down):  2.747E-04 2.724E-04
 --- in v_hubbard ---
Hubbard energy    0.1615
 -------

     total cpu time spent up to now is       39.1 secs

     total energy              =    -735.19287430 Ry
     estimated scf accuracy    <       0.00001137 Ry

     total magnetization       =    -0.03 Bohr mag/cell
     absolute magnetization    =     7.38 Bohr mag/cell

     iteration # 23     ecut=    30.00 Ry     beta= 0.30
     Davidson diagonalization with overlap
     ethr =  2.58E-08,  avg # of iterations =  2.0
 --- enter write_ns ---
 LDA+U parameters:
U( 1)     =  4.60000000
U( 2)     =  4.60000000
atom    1   Tr[ns(na)] (up, down, total) =   4.99741  1.58173  6.57914
   spin  1
    eigenvalues: 
  0.997  0.997  0.999  1.002  1.002
    eigenvectors:
  0.301  0.623  0.000  0.029  0.047
  0.050  0.000  0.333  0.084  0.532
  0.009  0.042  0.333  0.603  0.013
  0.623  0.301  0.000  0.047  0.029
  0.017  0.034  0.333  0.237  0.379
    occupations:
  0.998 -0.001 -0.001  0.000 -0.001
 -0.001  1.001 -0.001 -0.001  0.001
 -0.001 -0.001  1.001  0.001  0.001
  0.000 -0.001  0.001  0.998 -0.000
 -0.001  0.001  0.001 -0.000  1.001
   spin  2
    eigenvalues: 
  0.067  0.067  0.225  0.225  0.999
    eigenvectors:
  0.002  0.019  0.346  0.633  0.000
  0.615  0.037  0.014  0.000  0.333
  0.313  0.339  0.002  0.012  0.333
  0.019  0.002  0.633  0.346  0.000
  0.050  0.602  0.005  0.009  0.333
    occupations:
  0.221  0.009  0.009 -0.000  0.018
  0.009  0.380  0.310  0.016 -0.310
  0.009  0.310  0.380 -0.016 -0.310
 -0.000  0.016 -0.016  0.221 -0.000
  0.018 -0.310 -0.310 -0.000  0.380
atomic mag. moment =   3.41569
atom    2   Tr[ns(na)] (up, down, total) =   1.58030  4.99992  6.58022
   spin  1
    eigenvalues: 
  0.067  0.067  0.225  0.225  0.996
    eigenvectors:
  0.019  0.002  0.027  0.952  0.000
  0.025  0.628  0.012  0.002  0.333
  0.369  0.284  0.008  0.006  0.333
  0.002  0.019  0.952  0.027  0.000
  0.585  0.067  0.000  0.013  0.333
    occupations:
  0.222  0.009  0.009 -0.000  0.018
  0.009  0.379  0.309  0.016 -0.309
  0.009  0.309  0.379 -0.016 -0.309
 -0.000  0.016 -0.016  0.222 -0.000
  0.018 -0.309 -0.309 -0.000  0.379
   spin  2
    eigenvalues: 
  0.998  0.998  0.999  1.002  1.002
    eigenvectors:
  0.345  0.565  0.000  0.061  0.029
  0.059  0.001  0.333  0.004  0.603
  0.008  0.052  0.333  0.494  0.113
  0.565  0.345  0.000  0.029  0.061
  0.023  0.037  0.333  0.412  0.194
    occupations:
  0.999 -0.000 -0.000  0.000 -0.001
 -0.000  1.001 -0.001 -0.001  0.001
 -0.000 -0.001  1.001  0.001  0.001
  0.000 -0.001  0.001  0.999 -0.000
 -0.001  0.001  0.001 -0.000  1.001
atomic mag. moment =  -3.41962
N of occupied +U levels =   13.159366
 --- exit write_ns ---

     negative rho (up, down):  2.740E-04 2.726E-04
 --- in v_hubbard ---
Hubbard energy    0.1612
 -------

     total cpu time spent up to now is       40.9 secs

     total energy              =    -735.19287986 Ry
     estimated scf accuracy    <       0.00001030 Ry

     total magnetization       =    -0.02 Bohr mag/cell
     absolute magnetization    =     7.38 Bohr mag/cell

     iteration # 24     ecut=    30.00 Ry     beta= 0.30
     Davidson diagonalization with overlap
     ethr =  2.34E-08,  avg # of iterations =  2.2
 --- enter write_ns ---
 LDA+U parameters:
U( 1)     =  4.60000000
U( 2)     =  4.60000000
atom    1   Tr[ns(na)] (up, down, total) =   4.99798  1.58090  6.57888
   spin  1
    eigenvalues: 
  0.997  0.997  0.999  1.002  1.002
    eigenvectors:
  0.194  0.726  0.000  0.038  0.041
  0.053  0.000  0.333  0.048  0.565
  0.015  0.037  0.333  0.580  0.034
  0.726  0.194  0.000  0.041  0.038
  0.011  0.042  0.333  0.293  0.321
    occupations:
  0.998 -0.000 -0.000  0.000 -0.001
 -0.000  1.001 -0.001 -0.001  0.001
 -0.000 -0.001  1.001  0.001  0.001
[...]
  0.025  0.030  0.333  0.289  0.323
    occupations:
  0.998 -0.000 -0.000  0.000 -0.001
 -0.000  1.001 -0.001 -0.001  0.001
 -0.000 -0.001  1.001  0.001  0.001
  0.000 -0.001  0.001  0.998 -0.000
 -0.001  0.001  0.001 -0.000  1.001
   spin  2
    eigenvalues: 
  0.067  0.067  0.225  0.225  0.998
    eigenvectors:
  0.000  0.021  0.045  0.934  0.000
  0.453  0.200  0.013  0.001  0.333
  0.523  0.129  0.008  0.006  0.333
  0.021  0.000  0.934  0.045  0.000
  0.003  0.650  0.001  0.013  0.333
    occupations:
  0.221  0.009  0.009 -0.000  0.018
  0.009  0.379  0.309  0.016 -0.309
  0.009  0.309  0.379 -0.016 -0.309
 -0.000  0.016 -0.016  0.221 -0.000
  0.018 -0.309 -0.309 -0.000  0.379
atomic mag. moment =   3.41810
atom    2   Tr[ns(na)] (up, down, total) =   1.58031  4.99877  6.57909
   spin  1
    eigenvalues: 
  0.067  0.067  0.225  0.225  0.997
    eigenvectors:
  0.021  0.000  0.081  0.898  0.000
  0.133  0.520  0.013  0.001  0.333
  0.196  0.457  0.007  0.007  0.333
  0.000  0.021  0.898  0.081  0.000
  0.651  0.002  0.001  0.013  0.333
    occupations:
  0.221  0.009  0.009 -0.000  0.018
  0.009  0.379  0.309  0.016 -0.309
  0.009  0.309  0.379 -0.016 -0.309
 -0.000  0.016 -0.016  0.221 -0.000
  0.018 -0.309 -0.309 -0.000  0.379
   spin  2
    eigenvalues: 
  0.998  0.998  0.999  1.002  1.002
    eigenvectors:
  0.379  0.538  0.000  0.047  0.037
  0.054  0.002  0.333  0.025  0.586
  0.007  0.049  0.333  0.551  0.060
  0.538  0.379  0.000  0.037  0.047
  0.023  0.033  0.333  0.341  0.270
    occupations:
  0.998 -0.000 -0.000  0.000 -0.001
 -0.000  1.001 -0.001 -0.001  0.001
 -0.000 -0.001  1.001  0.001  0.001
  0.000 -0.001  0.001  0.998 -0.000
 -0.001  0.001  0.001 -0.000  1.001
atomic mag. moment =  -3.41846
N of occupied +U levels =   13.158112
 --- exit write_ns ---

     negative rho (up, down):  2.729E-04 2.730E-04
 --- in v_hubbard ---
Hubbard energy    0.1612
 -------

     total cpu time spent up to now is       47.9 secs

     total energy              =    -735.19288914 Ry
     estimated scf accuracy    <       0.00000003 Ry

     total magnetization       =    -0.00 Bohr mag/cell
     absolute magnetization    =     7.38 Bohr mag/cell

     iteration # 28     ecut=    30.00 Ry     beta= 0.30
     Davidson diagonalization with overlap
     ethr =  7.95E-11,  avg # of iterations =  3.0
 --- enter write_ns ---
 LDA+U parameters:
U( 1)     =  4.60000000
U( 2)     =  4.60000000
atom    1   Tr[ns(na)] (up, down, total) =   4.99864  1.58039  6.57903
   spin  1
    eigenvalues: 
  0.998  0.998  0.999  1.002  1.002
    eigenvectors:
  0.256  0.661  0.000  0.053  0.030
  0.055  0.000  0.333  0.009  0.603
  0.012  0.043  0.333  0.518  0.094
  0.661  0.256  0.000  0.030  0.053
  0.015  0.040  0.333  0.391  0.221
    occupations:
  0.998 -0.000 -0.000  0.000 -0.001
 -0.000  1.001 -0.001 -0.001  0.001
 -0.000 -0.001  1.001  0.001  0.001
  0.000 -0.001  0.001  0.998 -0.000
 -0.001  0.001  0.001 -0.000  1.001
   spin  2
    eigenvalues: 
  0.067  0.067  0.225  0.225  0.998
    eigenvectors:
  0.000  0.021  0.088  0.891  0.000
  0.429  0.223  0.013  0.001  0.333
  0.543  0.110  0.006  0.008  0.333
  0.021  0.000  0.891  0.088  0.000
  0.007  0.646  0.001  0.013  0.333
    occupations:
  0.221  0.009  0.009 -0.000  0.018
  0.009  0.379  0.309  0.016 -0.309
  0.009  0.309  0.379 -0.016 -0.309
 -0.000  0.016 -0.016  0.221 -0.000
  0.018 -0.309 -0.309 -0.000  0.379
atomic mag. moment =   3.41825
atom    2   Tr[ns(na)] (up, down, total) =   1.58037  4.99869  6.57906
   spin  1
    eigenvalues: 
  0.067  0.067  0.225  0.225  0.997
    eigenvectors:
  0.003  0.018  0.019  0.960  0.000
  0.236  0.417  0.012  0.002  0.333
  0.643  0.009  0.009  0.005  0.333
  0.018  0.003  0.960  0.019  0.000
  0.100  0.552  0.000  0.014  0.333
    occupations:
  0.221  0.009  0.009 -0.000  0.018
  0.009  0.379  0.309  0.016 -0.309
  0.009  0.309  0.379 -0.016 -0.309
 -0.000  0.016 -0.016  0.221 -0.000
  0.018 -0.309 -0.309 -0.000  0.379
   spin  2
    eigenvalues: 
  0.998  0.998  0.999  1.002  1.002
    eigenvectors:
  0.280  0.637  0.000  0.050  0.033
  0.055  0.000  0.333  0.015  0.597
  0.011  0.044  0.333  0.532  0.079
  0.637  0.280  0.000  0.033  0.050
  0.017  0.038  0.333  0.370  0.241
    occupations:
  0.998 -0.000 -0.000  0.000 -0.001
 -0.000  1.001 -0.001 -0.001  0.001
 -0.000 -0.001  1.001  0.001  0.001
  0.000 -0.001  0.001  0.998 -0.000
 -0.001  0.001  0.001 -0.000  1.001
atomic mag. moment =  -3.41832
N of occupied +U levels =   13.158091
 --- exit write_ns ---

     negative rho (up, down):  2.729E-04 2.730E-04
 --- in v_hubbard ---
Hubbard energy    0.1612
 -------

     total cpu time spent up to now is       49.8 secs

     total energy              =    -735.19288947 Ry
     estimated scf accuracy    <          1.5E-09 Ry

     total magnetization       =    -0.00 Bohr mag/cell
     absolute magnetization    =     7.38 Bohr mag/cell

     iteration # 29     ecut=    30.00 Ry     beta= 0.30
     Davidson diagonalization with overlap
     ethr =  3.30E-12,  avg # of iterations =  3.6
 --- enter write_ns ---
 LDA+U parameters:
U( 1)     =  4.60000000
U( 2)     =  4.60000000
atom    1   Tr[ns(na)] (up, down, total) =   4.99864  1.58040  6.57904
   spin  1
    eigenvalues: 
  0.998  0.998  0.999  1.002  1.002
    eigenvectors:
  0.283  0.634  0.000  0.046  0.036
  0.055  0.000  0.333  0.024  0.587
  0.011  0.044  0.333  0.550  0.061
  0.634  0.283  0.000  0.036  0.046
  0.017  0.038  0.333  0.343  0.269
    occupations:
  0.998 -0.000 -0.000  0.000 -0.001
 -0.000  1.001 -0.001 -0.001  0.001
 -0.000 -0.001  1.001  0.001  0.001
  0.000 -0.001  0.001  0.998 -0.000
 -0.001  0.001  0.001 -0.000  1.001
   spin  2
    eigenvalues: 
  0.067  0.067  0.225  0.225  0.998
    eigenvectors:
  0.002  0.019  0.084  0.895  0.000
  0.614  0.039  0.006  0.007  0.333
  0.316  0.336  0.013  0.001  0.333
  0.019  0.002  0.895  0.084  0.000
  0.049  0.604  0.001  0.013  0.333
    occupations:
  0.221  0.009  0.009 -0.000  0.018
  0.009  0.379  0.309  0.016 -0.309
  0.009  0.309  0.379 -0.016 -0.309
 -0.000  0.016 -0.016  0.221 -0.000
  0.018 -0.309 -0.309 -0.000  0.379
atomic mag. moment =   3.41824
atom    2   Tr[ns(na)] (up, down, total) =   1.58037  4.99869  6.57906
   spin  1
    eigenvalues: 
  0.067  0.067  0.225  0.225  0.997
    eigenvectors:
  0.006  0.015  0.077  0.902  0.000
  0.134  0.519  0.013  0.001  0.333
  0.651  0.002  0.007  0.007  0.333
  0.015  0.006  0.902  0.077  0.000
  0.194  0.458  0.001  0.013  0.333
    occupations:
  0.221  0.009  0.009 -0.000  0.018
  0.009  0.379  0.309  0.016 -0.309
  0.009  0.309  0.379 -0.016 -0.309
 -0.000  0.016 -0.016  0.221 -0.000
  0.018 -0.309 -0.309 -0.000  0.379
   spin  2
    eigenvalues: 
  0.998  0.998  0.999  1.002  1.002
    eigenvectors:
  0.290  0.627  0.000  0.051  0.032
  0.055  0.000  0.333  0.013  0.599
  0.010  0.045  0.333  0.528  0.084
  0.627  0.290  0.000  0.032  0.051
  0.017  0.038  0.333  0.377  0.235
    occupations:
  0.998 -0.000 -0.000  0.000 -0.001
 -0.000  1.001 -0.001 -0.001  0.001
 -0.000 -0.001  1.001  0.001  0.001
  0.000 -0.001  0.001  0.998 -0.000
 -0.001  0.001  0.001 -0.000  1.001
atomic mag. moment =  -3.41832
N of occupied +U levels =   13.158099
 --- exit write_ns ---

     negative rho (up, down):  2.730E-04 2.729E-04
 --- in v_hubbard ---
Hubbard energy    0.1612
 -------
 
     Magnetic moment per site:
     atom:    1    charge:   13.6039    magn:    3.3878    constr:    0.0000
     atom:    2    charge:   13.6039    magn:   -3.3879    constr:    0.0000
     atom:    3    charge:    5.8717    magn:   -0.0001    constr:    0.0000
     atom:    4    charge:    5.8717    magn:   -0.0001    constr:    0.0000

     total cpu time spent up to now is       51.7 secs

     End of self-consistent calculation

 ------ SPIN UP ------------


          k = 0.0000 0.0000 0.0000 (   731 PWs)   bands (ev):

   -76.1890 -72.0703 -42.3479 -42.3479 -40.7559 -38.0622 -38.0622 -37.3631
    -6.0015  -4.7546   4.9415   6.1814   6.1814   7.6161   7.6161   9.2929
    11.0702  11.1280  11.1280  11.2001  11.2001  11.8049  14.8399  15.5150
    15.5150  16.6948

     occupation numbers 
     1.0000   1.0000   1.0000   1.0000   1.0000   1.0000   1.0000   1.0000
     1.0000   1.0000   1.0000   1.0000   1.0000   1.0000   1.0000   1.0000
     1.0000   1.0000   1.0000   1.0000   1.0000   1.0650   0.0000   0.0000
     0.0000   0.0000

          k = 0.5000-0.1667-0.1667 (   758 PWs)   bands (ev):

   -76.1917 -72.0704 -42.4304 -42.3772 -40.7734 -38.1523 -38.0943 -37.3892
    -5.3021  -4.8041   5.6680   6.4098   6.7089   7.2766   7.4884   8.6987
     8.7625  10.1508  10.3583  11.2649  11.6162  11.8200  15.3556  15.5246
    16.3296  16.9839

     occupation numbers 
     1.0000   1.0000   1.0000   1.0000   1.0000   1.0000   1.0000   1.0000
     1.0000   1.0000   1.0000   1.0000   1.0000   1.0000   1.0000   1.0000
     1.0000   1.0000   1.0000   1.0000   1.0128   1.0698   0.0000   0.0000
     0.0000   0.0000

          k = 0.3333 0.3333-0.3333 (   753 PWs)   bands (ev):

   -76.1866 -72.0691 -42.4344 -42.3664 -40.7498 -38.1544 -38.0831 -37.3636
    -5.1211  -4.9925   5.5232   6.6576   6.7436   7.1458   7.4778   8.4118
     9.2250   9.9670  10.0460  11.3000  11.9065  12.0876  15.3171  15.5070
    16.7431  17.0224

     occupation numbers 
     1.0000   1.0000   1.0000   1.0000   1.0000   1.0000   1.0000   1.0000
     1.0000   1.0000   1.0000   1.0000   1.0000   1.0000   1.0000   1.0000
     1.0000   1.0000   1.0000   1.0001   1.0828   0.8972   0.0000   0.0000
     0.0000   0.0000

          k =-0.6667 0.6667 0.0000 (   767 PWs)   bands (ev):

   -76.1885 -72.0753 -42.4493 -42.4412 -40.7571 -38.1621 -38.1546 -37.3734
    -4.8598  -4.8596   5.7920   6.2702   6.7690   6.8453   7.3939   8.7829
     9.3508   9.7592   9.9686  10.9685  11.5749  11.6272  15.4753  15.4858
    16.8456  17.0283

     occupation numbers 
     1.0000   1.0000   1.0000   1.0000   1.0000   1.0000   1.0000   1.0000
     1.0000   1.0000   1.0000   1.0000   1.0000   1.0000   1.0000   1.0000
     1.0000   1.0000   1.0000   1.0000   1.0077   1.0146   0.0000   0.0000
     0.0000   0.0000

          k = 0.1667 0.1667 0.1667 (   739 PWs)   bands (ev):

   -76.1906 -72.0718 -42.3509 -42.3509 -40.7658 -38.0677 -38.0677 -37.3791
    -5.7313  -5.1128   5.9355   6.2424   6.2424   7.6394   7.6394   8.2469
    10.2484  10.2484  10.4424  11.5873  12.1257  12.1257  15.4730  15.4730
    16.5742  16.5742

     occupation numbers 
     1.0000   1.0000   1.0000   1.0000   1.0000   1.0000   1.0000   1.0000
     1.0000   1.0000   1.0000   1.0000   1.0000   1.0000   1.0000   1.0000
     1.0000   1.0000   1.0000   1.0090   0.8107   0.8107   0.0000   0.0000
     0.0000   0.0000

          k =-0.8333 0.5000 0.5000 (   762 PWs)   bands (ev):

   -76.1893 -72.0723 -42.4437 -42.3785 -40.7711 -38.1628 -38.0949 -37.3831
    -5.2494  -4.8548   5.3569   6.4322   6.7031   7.4928   7.7940   8.3448
     9.2687  10.0061  10.3901  11.0439  11.4549  12.0085  15.1574  15.5945
    16.4618  17.0788

     occupation numbers 
     1.0000   1.0000   1.0000   1.0000   1.0000   1.0000   1.0000   1.0000
     1.0000   1.0000   1.0000   1.0000   1.0000   1.0000   1.0000   1.0000
     1.0000   1.0000   1.0000   1.0000   1.0013   1.0253   0.0000   0.0000
     0.0000   0.0000

 ------ SPIN DOWN ----------


          k = 0.0000 0.0000 0.0000 (   731 PWs)   bands (ev):

   -76.1889 -72.0706 -42.3477 -42.3477 -40.7560 -38.0626 -38.0626 -37.3631
    -6.0017  -4.7548   4.9414   6.1813   6.1813   7.6168   7.6168   9.2921
    11.0699  11.1278  11.1278  11.2000  11.2000  11.8040  14.8400  15.5148
    15.5148  16.6953

     occupation numbers 
     1.0000   1.0000   1.0000   1.0000   1.0000   1.0000   1.0000   1.0000
     1.0000   1.0000   1.0000   1.0000   1.0000   1.0000   1.0000   1.0000
     1.0000   1.0000   1.0000   1.0000   1.0000   1.0646   0.0000   0.0000
     0.0000   0.0000

          k = 0.5000-0.1667-0.1667 (   758 PWs)   bands (ev):

   -76.1916 -72.0707 -42.4302 -42.3770 -40.7735 -38.1526 -38.0947 -37.3892
    -5.3023  -4.8044   5.6681   6.4100   6.7089   7.2764   7.4888   8.6987
     8.7623  10.1508  10.3579  11.2646  11.6153  11.8199  15.3553  15.5243
    16.3301  16.9844

     occupation numbers 
     1.0000   1.0000   1.0000   1.0000   1.0000   1.0000   1.0000   1.0000
     1.0000   1.0000   1.0000   1.0000   1.0000   1.0000   1.0000   1.0000
     1.0000   1.0000   1.0000   1.0000   1.0127   1.0698   0.0000   0.0000
     0.0000   0.0000

          k = 0.3333 0.3333-0.3333 (   753 PWs)   bands (ev):

   -76.1865 -72.0694 -42.4342 -42.3662 -40.7499 -38.1547 -38.0834 -37.3636
    -5.1213  -4.9927   5.5234   6.6575   6.7437   7.1456   7.4782   8.4119
     9.2249   9.9665  10.0459  11.2992  11.9065  12.0872  15.3168  15.5068
    16.7435  17.0229

     occupation numbers 
     1.0000   1.0000   1.0000   1.0000   1.0000   1.0000   1.0000   1.0000
     1.0000   1.0000   1.0000   1.0000   1.0000   1.0000   1.0000   1.0000
     1.0000   1.0000   1.0000   1.0001   1.0828   0.8981   0.0000   0.0000
     0.0000   0.0000

          k =-0.6667 0.6667 0.0000 (   767 PWs)   bands (ev):

   -76.1884 -72.0756 -42.4491 -42.4410 -40.7572 -38.1624 -38.1549 -37.3735
    -4.8600  -4.8598   5.7923   6.2707   6.7688   6.8451   7.3937   8.7828
     9.3509   9.7592   9.9680  10.9681  11.5749  11.6264  15.4750  15.4856
    16.8461  17.0288

     occupation numbers 
     1.0000   1.0000   1.0000   1.0000   1.0000   1.0000   1.0000   1.0000
     1.0000   1.0000   1.0000   1.0000   1.0000   1.0000   1.0000   1.0000
     1.0000   1.0000   1.0000   1.0000   1.0077   1.0144   0.0000   0.0000
     0.0000   0.0000

          k = 0.1667 0.1667 0.1667 (   739 PWs)   bands (ev):

   -76.1905 -72.0722 -42.3507 -42.3507 -40.7660 -38.0681 -38.0681 -37.3791
    -5.7315  -5.1131   5.9353   6.2424   6.2424   7.6401   7.6401   8.2464
    10.2483  10.2483  10.4420  11.5864  12.1255  12.1255  15.4727  15.4727
    16.4929  16.5747

     occupation numbers 
     1.0000   1.0000   1.0000   1.0000   1.0000   1.0000   1.0000   1.0000
     1.0000   1.0000   1.0000   1.0000   1.0000   1.0000   1.0000   1.0000
     1.0000   1.0000   1.0000   1.0089   0.8112   0.8112   0.0000   0.0000
     0.0000   0.0000

          k =-0.8333 0.5000 0.5000 (   762 PWs)   bands (ev):

   -76.1892 -72.0726 -42.4435 -42.3783 -40.7713 -38.1631 -38.0952 -37.3831
    -5.2497  -4.8550   5.3571   6.4323   6.7032   7.4933   7.7938   8.3448
     9.2683  10.0058  10.3900  11.0435  11.4549  12.0077  15.1572  15.5942
    16.4623  17.0793

     occupation numbers 
     1.0000   1.0000   1.0000   1.0000   1.0000   1.0000   1.0000   1.0000
     1.0000   1.0000   1.0000   1.0000   1.0000   1.0000   1.0000   1.0000
     1.0000   1.0000   1.0000   1.0000   1.0013   1.0261   0.0000   0.0000
     0.0000   0.0000

     the Fermi energy is    12.2792 ev

!    total energy              =    -735.19288974 Ry

     total all-electron energy =     -5385.568912 Ry
     estimated scf accuracy    <          7.7E-10 Ry
     smearing contrib. (-TS)   =       0.00461801 Ry
     internal energy E=F+TS    =    -735.19750775 Ry

     The total energy is F=E-TS. E is the sum of the following terms:
     one-electron contribution =    -266.45510366 Ry
     hartree contribution      =     159.15352425 Ry
     xc contribution           =     -83.80851107 Ry
     ewald contribution        =    -378.02403899 Ry
     Hubbard energy            =       0.16123212 Ry
     one-center paw contrib.   =    -166.22461040 Ry
      -> PAW hartree energy AE =     470.97840021 Ry
      -> PAW hartree energy PS =    -469.18803414 Ry
      -> PAW xc energy AE      =    -251.00673438 Ry
      -> PAW xc energy PS      =      82.99175791 Ry
      -> total E_H with PAW    =     160.94389032 Ry
      -> total E_XC with PAW   =    -251.82348754 Ry

     total magnetization       =    -0.00 Bohr mag/cell
     absolute magnetization    =     7.38 Bohr mag/cell

     convergence has been achieved in  29 iterations

     Writing output data file ./tmp/FeO.save/
 
     init_run     :      1.85s CPU      1.96s WALL (       1 calls)
     electrons    :     47.39s CPU     49.52s WALL (       1 calls)

     Called by init_run:
     wfcinit      :      0.36s CPU      0.36s WALL (       1 calls)
     wfcinit:atom :      0.00s CPU      0.00s WALL (      12 calls)
     wfcinit:wfcr :      0.33s CPU      0.33s WALL (      12 calls)
     potinit      :      0.76s CPU      0.79s WALL (       1 calls)
     hinit0       :      0.69s CPU      0.71s WALL (       1 calls)

     Called by electrons:
     c_bands      :     17.55s CPU     17.61s WALL (      29 calls)
     sum_band     :      6.91s CPU      7.77s WALL (      29 calls)
     v_of_rho     :      2.82s CPU      2.98s WALL (      30 calls)
     v_h          :      0.03s CPU      0.04s WALL (      30 calls)
     v_xc         :      2.79s CPU      2.93s WALL (      30 calls)
     newd         :      1.36s CPU      2.38s WALL (      30 calls)
     PAW_pot      :     19.17s CPU     19.27s WALL (      30 calls)
     mix_rho      :      0.20s CPU      0.20s WALL (      29 calls)

     Called by c_bands:
     init_us_2    :      0.25s CPU      0.25s WALL (     720 calls)
     cegterg      :     16.76s CPU     16.82s WALL (     348 calls)

     Called by sum_band:
     sum_band:wei :      0.01s CPU      0.01s WALL (      29 calls)
     sum_band:loo :      3.84s CPU      3.85s WALL (      29 calls)
     sum_band:buf :      0.01s CPU      0.01s WALL (     348 calls)
     sum_band:ini :      0.12s CPU      0.12s WALL (     348 calls)
     sum_band:cal :      0.07s CPU      0.07s WALL (     348 calls)
     sum_band:bec :      0.00s CPU      0.00s WALL (     348 calls)
     addusdens    :      2.87s CPU      3.72s WALL (      29 calls)
     addusd:skk   :      0.00s CPU      0.01s WALL (      87 calls)
     addusd:dgemm :      0.60s CPU      1.35s WALL (     174 calls)
     addusd:qvan2 :      2.14s CPU      2.15s WALL (     174 calls)

     Called by *egterg:
     cdiaghg      :      0.54s CPU      0.54s WALL (     979 calls)
     cegterg:over :      0.19s CPU      0.19s WALL (     631 calls)
     cegterg:upda :      0.11s CPU      0.11s WALL (     631 calls)
     cegterg:last :      0.18s CPU      0.18s WALL (     535 calls)
     h_psi        :     15.67s CPU     15.73s WALL (     991 calls)
     s_psi        :      0.18s CPU      0.18s WALL (    1003 calls)
     g_psi        :      0.05s CPU      0.05s WALL (     631 calls)

     Called by h_psi:
     h_psi:calbec :      0.17s CPU      0.17s WALL (     991 calls)
     vloc_psi     :     15.17s CPU     15.23s WALL (     991 calls)
     add_vuspsi   :      0.17s CPU      0.18s WALL (     991 calls)
     vhpsi        :      0.12s CPU      0.12s WALL (     991 calls)

     General routines
     calbec       :      0.31s CPU      0.31s WALL (    2690 calls)
     fft          :      0.70s CPU      0.73s WALL (     744 calls)
     ffts         :      0.04s CPU      0.04s WALL (     118 calls)
     fftw         :     16.50s CPU     16.56s WALL (   49592 calls)
     interpolate  :      0.09s CPU      0.09s WALL (      60 calls)
     davcio       :      0.00s CPU      0.00s WALL (      12 calls)
 
     Parallel routines

     Hubbard U routines
     new_ns       :      0.04s CPU      0.04s WALL (      29 calls)
     new_ns       :      0.04s CPU      0.04s WALL (      29 calls)
     vhpsi        :      0.12s CPU      0.12s WALL (     991 calls)

     PAW routines
     PAW_pot      :     19.17s CPU     19.27s WALL (      30 calls)
     PAW_symme    :      0.03s CPU      0.03s WALL (      59 calls)
 
     PWSCF        :     49.45s CPU     51.71s WALL

 
   This run was terminated on:  14:51:59  16Apr2021            

=------------------------------------------------------------------------------=
   JOB DONE.
=------------------------------------------------------------------------------=
