### Running on host: assam

     Program PWSCF v.6.4.1 starts on 14Sep2019 at 15:48:21 

     This program is part of the open-source Quantum ESPRESSO suite
     for quantum simulation of materials; please cite
         "P. Giannozzi et al., J. Phys.:Condens. Matter 21 395502 (2009);
         "P. Giannozzi et al., J. Phys.:Condens. Matter 29 465901 (2017);
          URL http://www.quantum-espresso.org", 
     in publications or presentations arising from this work. More details at
     http://www.quantum-espresso.org/quote

     Parallel version (MPI), running on     2 processors

     MPI processes distributed on     1 nodes
     R & G space division:  proc/nbgrp/npool/nimage =       2
     Reading input from pw.Fe.scf.in

     Current dimensions of program PWSCF are:
     Max number of different atomic species (ntypx) = 10
     Max number of k-points (npk) =  40000
     Max angular momentum in pseudopotentials (lmaxx) =  3
               file Fe.pbe-nd-rrkjus.UPF: wavefunction(s)  4S renormalized

     Subspace diagonalization in iterative solution of the eigenvalue problem:
     a serial algorithm will be used


     Parallelization info
     --------------------
     sticks:   dense  smooth     PW     G-vecs:    dense   smooth      PW
     Min         166      84     31                 1902      704     160
     Max         167      85     32                 1903      705     161
     Sum         333     169     63                 3805     1409     321



     bravais-lattice index     =            3
     lattice parameter (alat)  =       5.4200  a.u.
     unit-cell volume          =      79.6100 (a.u.)^3
     number of atoms/cell      =            1
     number of atomic types    =            1
     number of electrons       =         8.00
     number of Kohn-Sham states=            8
     kinetic-energy cutoff     =      25.0000  Ry
     charge density cutoff     =     200.0000  Ry
     convergence threshold     =      1.0E-06
     mixing beta               =       0.7000
     number of iterations used =            8  plain     mixing
     Exchange-correlation      =  SLA  PW   PBE  PBE ( 1  4  3  4 0 0)

     celldm(1)=   5.420000  celldm(2)=   0.000000  celldm(3)=   0.000000
     celldm(4)=   0.000000  celldm(5)=   0.000000  celldm(6)=   0.000000

     crystal axes: (cart. coord. in units of alat)
               a(1) = (   0.500000   0.500000   0.500000 )  
               a(2) = (  -0.500000   0.500000   0.500000 )  
               a(3) = (  -0.500000  -0.500000   0.500000 )  

     reciprocal axes: (cart. coord. in units 2 pi/alat)
               b(1) = (  1.000000  0.000000  1.000000 )  
               b(2) = ( -1.000000  1.000000  0.000000 )  
               b(3) = (  0.000000 -1.000000  1.000000 )  


     PseudoPot. # 1 for Fe read from file:
     /home/matic/pw/pseudo/Fe.pbe-nd-rrkjus.UPF
     MD5 check sum: 23c640529ef232ac9996b4ec1b0ce2fd
     Pseudo is Ultrasoft + core correction, Zval =  8.0
     Generated by new atomic code, or converted to UPF format
     Using radial grid of  957 points,  6 beta functions with: 
                l(1) =   0
                l(2) =   0
                l(3) =   1
                l(4) =   1
                l(5) =   2
                l(6) =   2
     Q(r) pseudized with 0 coefficients 


     atomic species   valence    mass     pseudopotential
        Fe             8.00     1.00000     Fe( 1.00)

     Starting magnetic structure 
     atomic species   magnetization
        Fe           0.600

     48 Sym. Ops., with inversion, found



   Cartesian axes

     site n.     atom                  positions (alat units)
         1           Fe  tau(   1) = (   0.0000000   0.0000000   0.0000000  )

     number of k points=    26  Marzari-Vanderbilt smearing, width (Ry)=  0.0100
                       cart. coord. in units 2pi/alat
        k(    1) = (   0.0000000   0.0000000   0.1250000), wk =   0.0117188
        k(    2) = (   0.0000000  -0.1250000   0.2500000), wk =   0.0468750
        k(    3) = (   0.0000000  -0.2500000   0.3750000), wk =   0.0468750
        k(    4) = (   0.0000000  -0.3750000   0.5000000), wk =   0.0468750
        k(    5) = (  -0.1250000   0.1250000   0.1250000), wk =   0.0156250
        k(    6) = (  -0.1250000  -0.1250000   0.3750000), wk =   0.0468750
        k(    7) = (  -0.1250000  -0.2500000   0.5000000), wk =   0.0937500
        k(    8) = (  -0.1250000   0.6250000  -0.3750000), wk =   0.0468750
        k(    9) = (  -0.2500000   0.2500000   0.1250000), wk =   0.0468750
        k(   10) = (  -0.2500000   0.7500000  -0.3750000), wk =   0.0468750
        k(   11) = (  -0.3750000   0.3750000   0.1250000), wk =   0.0468750
        k(   12) = (  -0.3750000   0.2500000   0.2500000), wk =   0.0468750
        k(   13) = (   0.5000000  -0.5000000   0.1250000), wk =   0.0234375
        k(   14) = (   0.5000000  -0.6250000   0.2500000), wk =   0.0937500
        k(   15) = (   0.3750000  -0.6250000   0.3750000), wk =   0.0156250
        k(   16) = (   0.0000000   0.0000000   0.3750000), wk =   0.0117188
        k(   17) = (   0.0000000  -0.1250000   0.5000000), wk =   0.0468750
        k(   18) = (   0.0000000  -0.2500000   0.6250000), wk =   0.0468750
        k(   19) = (  -0.1250000  -0.1250000   0.6250000), wk =   0.0468750
        k(   20) = (  -0.1250000   0.7500000  -0.2500000), wk =   0.0468750
        k(   21) = (   0.6250000  -0.6250000   0.3750000), wk =   0.0156250
        k(   22) = (   0.5000000  -0.5000000   0.3750000), wk =   0.0234375
        k(   23) = (   0.0000000   0.0000000   0.6250000), wk =   0.0117188
        k(   24) = (   0.0000000  -0.1250000   0.7500000), wk =   0.0468750
        k(   25) = (  -0.1250000   0.8750000  -0.1250000), wk =   0.0156250
        k(   26) = (   0.0000000   0.0000000   0.8750000), wk =   0.0117188

     Dense  grid:     3805 G-vectors     FFT dimensions: (  24,  24,  24)

     Smooth grid:     1409 G-vectors     FFT dimensions: (  15,  15,  15)

     Estimated max dynamical RAM per process >       9.10 MB

     Estimated total dynamical RAM >      18.21 MB
     Generating pointlists ...
     new r_m :   0.3572 (alat units)  1.9362 (a.u.) for type    1

     Check: negative core charge=   -0.000022

     Initial potential from superposition of free atoms

     starting charge    7.99937, renormalised to    8.00000
     Starting wfcs are    6 randomized atomic wfcs +    2 random wfcs

     total cpu time spent up to now is        0.3 secs

     Self-consistent Calculation

     iteration #  1     ecut=    25.00 Ry     beta= 0.70
     Davidson diagonalization with overlap
     ethr =  1.00E-02,  avg # of iterations =  3.9

     total cpu time spent up to now is        0.6 secs

     total energy              =     -55.64447688 Ry
     Harris-Foulkes estimate   =     -55.80031188 Ry
     estimated scf accuracy    <       0.32675950 Ry

     total magnetization       =     2.94 Bohr mag/cell
     absolute magnetization    =     2.94 Bohr mag/cell

     iteration #  2     ecut=    25.00 Ry     beta= 0.70
     Davidson diagonalization with overlap
     ethr =  4.08E-03,  avg # of iterations =  2.0

     total cpu time spent up to now is        0.8 secs

     total energy              =     -55.72214589 Ry
     Harris-Foulkes estimate   =     -55.88135812 Ry
     estimated scf accuracy    <       0.35165066 Ry

     total magnetization       =     2.56 Bohr mag/cell
     absolute magnetization    =     2.61 Bohr mag/cell

     iteration #  3     ecut=    25.00 Ry     beta= 0.70
     Davidson diagonalization with overlap
     ethr =  4.08E-03,  avg # of iterations =  1.2

     total cpu time spent up to now is        1.0 secs

     total energy              =     -55.79849114 Ry
     Harris-Foulkes estimate   =     -55.79250396 Ry
     estimated scf accuracy    <       0.00278748 Ry

     total magnetization       =     2.58 Bohr mag/cell
     absolute magnetization    =     2.65 Bohr mag/cell

     iteration #  4     ecut=    25.00 Ry     beta= 0.70
     Davidson diagonalization with overlap
     ethr =  3.48E-05,  avg # of iterations =  3.3

     total cpu time spent up to now is        1.3 secs

     total energy              =     -55.80175987 Ry
     Harris-Foulkes estimate   =     -55.80165918 Ry
     estimated scf accuracy    <       0.00011678 Ry

     total magnetization       =     2.41 Bohr mag/cell
     absolute magnetization    =     2.57 Bohr mag/cell

     iteration #  5     ecut=    25.00 Ry     beta= 0.70
     Davidson diagonalization with overlap
     ethr =  1.46E-06,  avg # of iterations =  2.9

     total cpu time spent up to now is        1.5 secs

     total energy              =     -55.80186643 Ry
     Harris-Foulkes estimate   =     -55.80185438 Ry
     estimated scf accuracy    <       0.00003545 Ry

     total magnetization       =     2.36 Bohr mag/cell
     absolute magnetization    =     2.53 Bohr mag/cell

     iteration #  6     ecut=    25.00 Ry     beta= 0.70
     Davidson diagonalization with overlap
     ethr =  4.43E-07,  avg # of iterations =  1.3

     total cpu time spent up to now is        1.6 secs

     total energy              =     -55.80176875 Ry
     Harris-Foulkes estimate   =     -55.80188346 Ry
     estimated scf accuracy    <       0.00001703 Ry

     total magnetization       =     2.35 Bohr mag/cell
     absolute magnetization    =     2.51 Bohr mag/cell

     iteration #  7     ecut=    25.00 Ry     beta= 0.70
     Davidson diagonalization with overlap
     ethr =  2.13E-07,  avg # of iterations =  2.6

     Magnetic moment per site:
     atom:    1    charge:    6.4867    magn:    2.3640    constr:    0.0000

     total cpu time spent up to now is        1.9 secs

     End of self-consistent calculation

 ------ SPIN UP ------------


          k = 0.0000 0.0000 0.1250 (   169 PWs)   bands (ev):

     5.0621  10.6175  10.6175  10.7005  11.6095  11.7962  35.6647  36.9636

          k = 0.0000-0.1250 0.2500 (   168 PWs)   bands (ev):

     6.2328  10.3646  10.5456  11.2885  11.3923  11.8907  31.3366  34.6314

          k = 0.0000-0.2500 0.3750 (   169 PWs)   bands (ev):

     7.8266   9.9883  10.6128  11.6146  12.0793  12.2535  25.6483  32.2856

          k = 0.0000-0.3750 0.5000 (   168 PWs)   bands (ev):

     8.2432   9.7328  11.3256  11.7599  13.0294  13.5651  20.9212  30.9471

          k =-0.1250 0.1250 0.1250 (   171 PWs)   bands (ev):

     5.6678  10.4235  10.4235  11.1888  11.6818  11.6818  33.8237  33.8238

          k =-0.1250-0.1250 0.3750 (   167 PWs)   bands (ev):

     7.6522  10.1444  10.3614  11.2921  11.9633  12.2977  28.6018  29.5447

          k =-0.1250-0.2500 0.5000 (   170 PWs)   bands (ev):

     8.6490   9.8631  10.4244  11.5866  12.3363  14.0510  23.4951  27.3597

          k =-0.1250 0.6250-0.3750 (   170 PWs)   bands (ev):

     8.6677   9.8626  10.5760  11.6798  12.6936  16.0987  20.1187  26.6791

          k =-0.2500 0.2500 0.1250 (   167 PWs)   bands (ev):

     7.2313  10.0360  10.2369  11.6344  11.7969  12.1696  28.5166  31.5496

          k =-0.2500 0.7500-0.3750 (   167 PWs)   bands (ev):

     9.3381   9.5684  10.0959  11.8796  12.3179  17.2773  21.6342  22.8666

          k =-0.3750 0.3750 0.1250 (   170 PWs)   bands (ev):

     8.3192   9.7050  11.0309  11.7800  11.8862  13.5725  23.1133  29.8887

          k =-0.3750 0.2500 0.2500 (   170 PWs)   bands (ev):

     8.6652   9.7667   9.9767  11.7131  11.9225  13.7653  26.0700  26.8223

          k = 0.5000-0.5000 0.1250 (   170 PWs)   bands (ev):

     8.3608   9.5779  11.8364  11.9225  12.0018  15.0112  20.0057  29.2791

          k = 0.5000-0.6250 0.2500 (   167 PWs)   bands (ev):

     8.9698   9.6163  10.6052  11.8491  12.0225  16.2257  21.4569  25.2854

          k = 0.3750-0.6250 0.3750 (   161 PWs)   bands (ev):

     9.2763   9.9707   9.9707  11.9796  11.9796  19.7181  19.7181  22.0422

          k = 0.0000 0.0000 0.3750 (   164 PWs)   bands (ev):

     7.2561  10.6473  10.7678  10.7678  11.3008  12.2441  31.4456  32.4607

          k = 0.0000-0.1250 0.5000 (   169 PWs)   bands (ev):

     8.5140   9.9377  10.6360  11.2549  12.1426  13.1259  26.5019  29.9090

          k = 0.0000-0.2500 0.6250 (   171 PWs)   bands (ev):

     8.7561   9.8910  10.4477  11.4475  12.9518  15.6562  21.4555  28.3253

          k =-0.1250-0.1250 0.6250 (   171 PWs)   bands (ev):

     9.0716   9.3425  10.7093  11.6398  12.5425  15.5083  24.4144  24.9815

          k =-0.1250 0.7500-0.2500 (   163 PWs)   bands (ev):

     9.0035   9.3640  10.5269  11.9334  12.7671  18.5226  20.6233  24.0237

          k = 0.6250-0.6250 0.3750 (   165 PWs)   bands (ev):

     9.6048   9.6048   9.8016  11.9057  11.9057  16.1891  24.4585  24.4586

          k = 0.5000-0.5000 0.3750 (   162 PWs)   bands (ev):

     9.5017   9.5734  10.2237  11.9387  11.9459  19.0234  20.7667  23.9050

          k = 0.0000 0.0000 0.6250 (   168 PWs)   bands (ev):

     8.8653   9.2893  11.5094  11.5094  12.1751  14.8722  27.0293  27.0293

          k = 0.0000-0.1250 0.7500 (   168 PWs)   bands (ev):

     8.7426   8.8684  11.6395  11.9077  12.8446  17.9914  22.6761  25.2513

          k =-0.1250 0.8750-0.1250 (   167 PWs)   bands (ev):

     8.6062   8.6062  11.7421  12.6978  12.6978  21.3728  21.3728  22.4336

          k = 0.0000 0.0000 0.8750 (   172 PWs)   bands (ev):

     8.3521   8.3561  12.6596  12.6596  12.8108  20.7722  23.2840  23.2840

 ------ SPIN DOWN ----------


          k = 0.0000 0.0000 0.1250 (   169 PWs)   bands (ev):

     5.1258  12.8388  12.8388  12.9467  14.6629  14.9156  35.5449  36.8089

          k = 0.0000-0.1250 0.2500 (   168 PWs)   bands (ev):

     6.3267  12.5212  12.7094  13.6010  14.3059  15.0212  31.7571  34.7187

          k = 0.0000-0.2500 0.3750 (   169 PWs)   bands (ev):

     8.2822  12.0571  12.4091  14.3627  14.6993  15.1350  26.4708  32.3687

          k = 0.0000-0.3750 0.5000 (   168 PWs)   bands (ev):

     9.5756  11.7460  12.9051  14.5714  15.4694  15.6080  22.2235  30.9870

          k =-0.1250 0.1250 0.1250 (   171 PWs)   bands (ev):

     5.7399  12.6031  12.6031  13.4766  14.7475  14.7475  33.9988  33.9988

          k =-0.1250-0.1250 0.3750 (   167 PWs)   bands (ev):

     7.9067  12.2972  12.4052  14.0238  14.4377  15.2408  29.2359  30.0798

          k =-0.1250-0.2500 0.5000 (   170 PWs)   bands (ev):

     9.6738  11.8483  12.2262  14.2693  15.1167  16.1544  24.4458  27.9520

          k =-0.1250 0.6250-0.3750 (   170 PWs)   bands (ev):

    10.2258  11.8531  12.2710  14.4245  15.3360  17.4815  21.4965  27.2548

          k =-0.2500 0.2500 0.1250 (   167 PWs)   bands (ev):

     7.4085  12.1169  12.2708  14.5031  14.5962  14.9043  29.1212  31.8401

          k =-0.2500 0.7500-0.3750 (   167 PWs)   bands (ev):

    10.9164  11.4495  11.9383  14.5557  15.0317  18.7127  22.6887  23.6838

          k =-0.3750 0.3750 0.1250 (   170 PWs)   bands (ev):

     9.2634  11.6992  12.3202  14.6870  15.0453  15.7543  24.1113  30.1503

          k =-0.3750 0.2500 0.2500 (   170 PWs)   bands (ev):

     9.2085  11.7130  11.8184  14.6739  15.0354  15.9368  26.7965  27.4409

          k = 0.5000-0.5000 0.1250 (   170 PWs)   bands (ev):

     9.8074  11.5395  13.0239  14.7574  15.1068  16.5756  21.4609  29.5109

          k = 0.5000-0.6250 0.2500 (   167 PWs)   bands (ev):

    10.4067  11.4803  11.9998  14.8122  15.1054  17.7920  22.5426  25.9314

          k = 0.3750-0.6250 0.3750 (   161 PWs)   bands (ev):

    11.0047  11.5732  11.5732  14.9890  14.9890  20.8308  20.8308  22.9503

          k = 0.0000 0.0000 0.3750 (   164 PWs)   bands (ev):

     7.4277  12.9264  12.9264  13.3620  13.6276  15.3205  31.8345  33.0167

          k = 0.0000-0.1250 0.5000 (   169 PWs)   bands (ev):

     9.1546  12.2136  12.7600  13.6118  14.5703  15.6982  27.2700  30.5020

          k = 0.0000-0.2500 0.6250 (   171 PWs)   bands (ev):

    10.3184  11.7739  12.5330  13.9494  15.5173  17.1638  22.5834  28.8558

          k =-0.1250-0.1250 0.6250 (   171 PWs)   bands (ev):

    10.4239  11.5017  12.8243  13.9991  15.0748  17.1814  25.2986  25.6476

          k =-0.1250 0.7500-0.2500 (   163 PWs)   bands (ev):

    10.9188  11.2690  12.5568  14.3569  15.3086  19.6291  21.7366  24.7315

          k = 0.6250-0.6250 0.3750 (   165 PWs)   bands (ev):

    10.7556  11.4011  11.4011  15.0350  15.0350  17.8730  25.2133  25.2134

          k = 0.5000-0.5000 0.3750 (   162 PWs)   bands (ev):

    11.0717  11.3122  11.6745  15.0675  15.1395  20.1390  21.8547  24.6637

          k = 0.0000 0.0000 0.6250 (   168 PWs)   bands (ev):

    10.1538  11.5942  13.7089  13.7089  14.6277  16.6353  27.5869  27.5869

          k = 0.0000-0.1250 0.7500 (   168 PWs)   bands (ev):

    10.6247  10.9365  13.8874  14.1806  15.3928  19.0342  23.4291  25.7014

          k =-0.1250 0.8750-0.1250 (   167 PWs)   bands (ev):

    10.6317  10.6317  13.9618  15.1862  15.1862  22.0759  22.0759  22.9950

          k = 0.0000 0.0000 0.8750 (   172 PWs)   bands (ev):

    10.3554  10.4205  15.1286  15.1286  15.3610  21.2851  23.5509  23.5509

     the Fermi energy is    12.9178 ev

!    total energy              =     -55.80194553 Ry
     Harris-Foulkes estimate   =     -55.80192689 Ry
     estimated scf accuracy    <       0.00000083 Ry

     The total energy is the sum of the following terms:

     one-electron contribution =       6.89116562 Ry
     hartree contribution      =       6.71604125 Ry
     xc contribution           =     -26.43675416 Ry
     ewald contribution        =     -42.97249836 Ry
     smearing contrib. (-TS)   =       0.00010013 Ry

     total magnetization       =     2.29 Bohr mag/cell
     absolute magnetization    =     2.45 Bohr mag/cell

     convergence has been achieved in   7 iterations

     Writing output data file fe.save/

     init_run     :      0.26s CPU      0.26s WALL (       1 calls)
     electrons    :      1.42s CPU      1.54s WALL (       1 calls)

     Called by init_run:
     wfcinit      :      0.05s CPU      0.05s WALL (       1 calls)
     potinit      :      0.02s CPU      0.02s WALL (       1 calls)
     hinit0       :      0.18s CPU      0.18s WALL (       1 calls)

     Called by electrons:
     c_bands      :      1.01s CPU      1.09s WALL (       7 calls)
     sum_band     :      0.21s CPU      0.25s WALL (       7 calls)
     v_of_rho     :      0.15s CPU      0.15s WALL (       8 calls)
     newd         :      0.06s CPU      0.06s WALL (       8 calls)
     mix_rho      :      0.01s CPU      0.01s WALL (       7 calls)

     Called by c_bands:
     init_us_2    :      0.03s CPU      0.03s WALL (     780 calls)
     cegterg      :      0.96s CPU      1.04s WALL (     364 calls)

     Called by sum_band:
     sum_band:bec :      0.00s CPU      0.00s WALL (     364 calls)
     addusdens    :      0.07s CPU      0.08s WALL (       7 calls)

     Called by *egterg:
     h_psi        :      0.69s CPU      0.74s WALL (    1313 calls)
     s_psi        :      0.04s CPU      0.04s WALL (    1313 calls)
     g_psi        :      0.00s CPU      0.01s WALL (     897 calls)
     cdiaghg      :      0.17s CPU      0.19s WALL (    1261 calls)

     Called by h_psi:
     h_psi:pot    :      0.69s CPU      0.74s WALL (    1313 calls)
     h_psi:calbec :      0.03s CPU      0.03s WALL (    1313 calls)
     vloc_psi     :      0.62s CPU      0.66s WALL (    1313 calls)
     add_vuspsi   :      0.04s CPU      0.04s WALL (    1313 calls)

     General routines
     calbec       :      0.04s CPU      0.04s WALL (    1677 calls)
     fft          :      0.04s CPU      0.04s WALL (     194 calls)
     ffts         :      0.00s CPU      0.00s WALL (      30 calls)
     fftw         :      0.67s CPU      0.73s WALL (   18506 calls)
     interpolate  :      0.01s CPU      0.01s WALL (      16 calls)

     Parallel routines
     fft_scatt_xy :      0.08s CPU      0.08s WALL (   18730 calls)
     fft_scatt_yz :      0.15s CPU      0.16s WALL (   18730 calls)

     PWSCF        :      1.75s CPU      1.88s WALL


   This run was terminated on:  15:48:23  14Sep2019            

=------------------------------------------------------------------------------=
   JOB DONE.
=------------------------------------------------------------------------------=
