
     Program BANDS v.6.3 starts on 14Sep2019 at 13:36:31 

     This program is part of the open-source Quantum ESPRESSO suite
     for quantum simulation of materials; please cite
         "P. Giannozzi et al., J. Phys.:Condens. Matter 21 395502 (2009);
         "P. Giannozzi et al., J. Phys.:Condens. Matter 29 465901 (2017);
          URL http://www.quantum-espresso.org", 
     in publications or presentations arising from this work. More details at
     http://www.quantum-espresso.org/quote

     Parallel version (MPI), running on     1 processors

     MPI processes distributed on     1 nodes

     Reading data from directory:
     /tmp/Graphene_1x1_PBE.save/

     IMPORTANT: XC functional enforced from input :
     Exchange-correlation      = PBE ( 1  4  3  4 0 0)
     Any further DFT definition will be discarded
     Please, verify this is what you really want

               file C.pbe-rrkjus.UPF: wavefunction(s)  2S 2P renormalized

     G-vector sticks info
     --------------------
     sticks:   dense  smooth     PW     G-vecs:    dense   smooth      PW
     Sum         301     121     37                12531     3147     647


     negative rho (up, down):  3.199E-06 0.000E+00
     high-symmetry point:  0.0000 0.0000 0.0000   x coordinate   0.0000
     high-symmetry point:  0.3333 0.5774 0.0000   x coordinate   0.6667
     high-symmetry point:  0.0000 0.5774 0.0000   x coordinate   1.0000
     high-symmetry point:  0.0000 0.0000 0.0000   x coordinate   1.5774

     Plottable bands (eV) written to file graphene.bands.dat.gnu
     Bands written to file graphene.bands.dat

 **************************************************************************

                    xk=(   0.00000,   0.00000,   0.00000  )

     point group D_6h(6/mmm)
     there are 12 classes
     the character table:

       E     2C6   2C3   C2    3C2'  3C2'' i     2S3   2S6   s_h   3s_d  3s_v 
A_1g   1.00  1.00  1.00  1.00  1.00  1.00  1.00  1.00  1.00  1.00  1.00  1.00
A_2g   1.00  1.00  1.00  1.00 -1.00 -1.00  1.00  1.00  1.00  1.00 -1.00 -1.00
B_1g   1.00 -1.00  1.00 -1.00  1.00 -1.00  1.00 -1.00  1.00 -1.00  1.00 -1.00
B_2g   1.00 -1.00  1.00 -1.00 -1.00  1.00  1.00 -1.00  1.00 -1.00 -1.00  1.00
E_1g   2.00  1.00 -1.00 -2.00  0.00  0.00  2.00  1.00 -1.00 -2.00  0.00  0.00
E_2g   2.00 -1.00 -1.00  2.00  0.00  0.00  2.00 -1.00 -1.00  2.00  0.00  0.00
A_1u   1.00  1.00  1.00  1.00  1.00  1.00 -1.00 -1.00 -1.00 -1.00 -1.00 -1.00
A_2u   1.00  1.00  1.00  1.00 -1.00 -1.00 -1.00 -1.00 -1.00 -1.00  1.00  1.00
B_1u   1.00 -1.00  1.00 -1.00  1.00 -1.00 -1.00  1.00 -1.00  1.00 -1.00  1.00
B_2u   1.00 -1.00  1.00 -1.00 -1.00  1.00 -1.00  1.00 -1.00  1.00  1.00 -1.00
E_1u   2.00  1.00 -1.00 -2.00  0.00  0.00 -2.00 -1.00  1.00  2.00  0.00  0.00
E_2u   2.00 -1.00 -1.00  2.00  0.00  0.00 -2.00  1.00  1.00 -2.00  0.00  0.00

     the symmetry operations in each class and the name of the first element:

     E        1
                                                                 
     2C6      5    6
                                                                 
     2C3      7    8
                                                                 
     C2       2
                                                                 
     3C2'     4   12   11
                                                                 
     3C2''    3    9   10
                                                                 
     i       13
                                                                 
     2S3     17   18
                                                                 
     2S6     19   20
                                                                 
     s_h     14
                                                                 
     3s_d    16   24   23
                                                                 
     3s_v    15   21   22
                                                                 

     Band symmetry, D_6h(6/mmm) point group:

     e(  1 -  1) =    -18.66798  eV     1   --> A_1g           
     e(  2 -  2) =     -6.72126  eV     1   --> A_2u           
     e(  3 -  4) =     -2.15114  eV     2   --> E_2g           
     e(  5 -  5) =      3.76597  eV     1   --> A_1g           
     e(  6 -  6) =      7.13315  eV     1   --> A_2u           
     e(  7 -  8) =      9.25480  eV     2   --> E_1u           

 **************************************************************************

 **************************************************************************

                    xk=(   0.01667,   0.02887,   0.00000  )

     point group C_2v (mm2) 
     there are  4 classes
     the character table:

       E     C2    s_v   s_v' 
A_1    1.00  1.00  1.00  1.00
A_2    1.00  1.00 -1.00 -1.00
B_1    1.00 -1.00  1.00 -1.00
B_2    1.00 -1.00 -1.00  1.00

     the symmetry operations in each class and the name of the first element:

     E        1
                                                                 
     C2       2
                                                                 
     s_v      3
                                                                 
     s_v'     4
                                                                 

     Band symmetry, C_2v (mm2)  point group:

     e(  1 -  1) =    -18.64834  eV     1   --> A_1  D_1  S_1  
     e(  2 -  2) =     -6.69809  eV     1   --> B_2  D_4  S_4  
     e(  3 -  3) =     -2.24916  eV     1   --> B_1  D_3  S_3  
     e(  4 -  4) =     -2.19614  eV     1   --> A_1  D_1  S_1  
     e(  5 -  5) =      3.79281  eV     1   --> A_1  D_1  S_1  
     e(  6 -  6) =      7.15875  eV     1   --> B_2  D_4  S_4  
     e(  7 -  7) =      9.24736  eV     1   --> A_1  D_1  S_1  
     e(  8 -  8) =      9.33859  eV     1   --> B_1  D_3  S_3  

 **************************************************************************

 **************************************************************************

                    xk=(   0.03333,   0.05774,   0.00000  )

     Band symmetry, C_2v (mm2)  point group:

     e(  1 -  1) =    -18.58936  eV     1   --> A_1  D_1  S_1  
     e(  2 -  2) =     -6.63072  eV     1   --> B_2  D_4  S_4  
     e(  3 -  3) =     -2.48970  eV     1   --> B_1  D_3  S_3  
     e(  4 -  4) =     -2.33320  eV     1   --> A_1  D_1  S_1  
     e(  5 -  5) =      3.87334  eV     1   --> A_1  D_1  S_1  
     e(  6 -  6) =      7.23478  eV     1   --> B_2  D_4  S_4  
     e(  7 -  7) =      9.25648  eV     1   --> A_1  D_1  S_1  
     e(  8 -  8) =      9.54480  eV     1   --> A_1  D_1  S_1  

 **************************************************************************

 **************************************************************************

                    xk=(   0.05000,   0.08660,   0.00000  )

     Band symmetry, C_2v (mm2)  point group:

     e(  1 -  1) =    -18.49129  eV     1   --> A_1  D_1  S_1  
     e(  2 -  2) =     -6.52162  eV     1   --> B_2  D_4  S_4  
     e(  3 -  3) =     -2.85651  eV     1   --> B_1  D_3  S_3  
     e(  4 -  4) =     -2.55925  eV     1   --> A_1  D_1  S_1  
     e(  5 -  5) =      4.00757  eV     1   --> A_1  D_1  S_1  
     e(  6 -  6) =      7.36042  eV     1   --> B_2  D_4  S_4  
     e(  7 -  7) =      9.30468  eV     1   --> A_1  D_1  S_1  
     e(  8 -  8) =      9.69413  eV     1   --> A_1  D_1  S_1  

 **************************************************************************

 **************************************************************************

                    xk=(   0.06667,   0.11547,   0.00000  )

     Band symmetry, C_2v (mm2)  point group:

     e(  1 -  1) =    -18.35343  eV     1   --> A_1  D_1  S_1  
     e(  2 -  2) =     -6.35747  eV     1   --> B_2  D_4  S_4  
     e(  3 -  3) =     -3.31066  eV     1   --> B_1  D_3  S_3  
     e(  4 -  4) =     -2.84249  eV     1   --> A_1  D_1  S_1  
     e(  5 -  5) =      4.19559  eV     1   --> A_1  D_1  S_1  
     e(  6 -  6) =      7.53942  eV     1   --> B_2  D_4  S_4  
     e(  7 -  7) =      9.40180  eV     1   --> A_1  D_1  S_1  
     e(  8 -  8) =      9.89122  eV     1   --> A_1  D_1  S_1  

 **************************************************************************

 **************************************************************************

                    xk=(   0.08333,   0.14434,   0.00000  )

     Band symmetry, C_2v (mm2)  point group:

     e(  1 -  1) =    -18.17657  eV     1   --> A_1  D_1  S_1  
     e(  2 -  2) =     -6.14723  eV     1   --> B_2  D_4  S_4  
     e(  3 -  3) =     -3.84264  eV     1   --> B_1  D_3  S_3  
     e(  4 -  4) =     -3.18664  eV     1   --> A_1  D_1  S_1  
     e(  5 -  5) =      4.43737  eV     1   --> A_1  D_1  S_1  
     e(  6 -  6) =      7.76867  eV     1   --> B_2  D_4  S_4  
     e(  7 -  7) =      9.54539  eV     1   --> A_1  D_1  S_1  
     e(  8 -  8) =     10.13410  eV     1   --> A_1  D_1  S_1  

 **************************************************************************

 **************************************************************************

                    xk=(   0.10000,   0.17321,   0.00000  )

     Band symmetry, C_2v (mm2)  point group:

     e(  1 -  1) =    -17.96087  eV     1   --> A_1  D_1  S_1  
     e(  2 -  2) =     -5.89249  eV     1   --> B_2  D_4  S_4  
     e(  3 -  3) =     -4.43091  eV     1   --> B_1  D_3  S_3  
     e(  4 -  4) =     -3.59691  eV     1   --> A_1  D_1  S_1  
     e(  5 -  5) =      4.73263  eV     1   --> A_1  D_1  S_1  
     e(  6 -  6) =      8.04702  eV     1   --> B_2  D_4  S_4  
     e(  7 -  7) =      9.71174  eV     1   --> A_1  D_1  S_1  
     e(  8 -  8) =     10.16954  eV     1   --> A_2  D_2  S_2  

 **************************************************************************

 **************************************************************************

                    xk=(   0.11667,   0.20207,   0.00000  )

     Band symmetry, C_2v (mm2)  point group:

     e(  1 -  1) =    -17.70707  eV     1   --> A_1  D_1  S_1  
     e(  2 -  2) =     -5.59282  eV     1   --> B_2  D_4  S_4  
     e(  3 -  3) =     -5.04196  eV     1   --> B_1  D_3  S_3  
     e(  4 -  4) =     -4.04540  eV     1   --> A_1  D_1  S_1  
     e(  5 -  5) =      5.08168  eV     1   --> A_1  D_1  S_1  
     e(  6 -  6) =      8.37372  eV     1   --> B_2  D_4  S_4  
     e(  7 -  7) =      9.49943  eV     1   --> A_2  D_2  S_2  
     e(  8 -  8) =      9.93449  eV     1   --> A_1  D_1  S_1  

 **************************************************************************

 **************************************************************************

                    xk=(   0.13333,   0.23094,   0.00000  )

     Band symmetry, C_2v (mm2)  point group:

     e(  1 -  1) =    -17.41466  eV     1   --> A_1  D_1  S_1  
     e(  2 -  2) =     -5.65412  eV     1   --> B_1  D_3  S_3  
     e(  3 -  3) =     -5.25019  eV     1   --> B_2  D_4  S_4  
     e(  4 -  4) =     -4.52978  eV     1   --> A_1  D_1  S_1  
     e(  5 -  5) =      5.48405  eV     1   --> A_1  D_1  S_1  
     e(  6 -  6) =      8.74661  eV     1   --> B_2  D_4  S_4  
     e(  7 -  7) =      8.79056  eV     1   --> A_2  D_2  S_2  
     e(  8 -  8) =     10.20568  eV     1   --> A_1  D_1  S_1  

 **************************************************************************

 **************************************************************************

                    xk=(   0.15000,   0.25981,   0.00000  )

     Band symmetry, C_2v (mm2)  point group:

     e(  1 -  1) =    -17.08441  eV     1   --> A_1  D_1  S_1  
     e(  2 -  2) =     -6.27046  eV     1   --> B_1  D_3  S_3  
     e(  3 -  3) =     -5.01993  eV     1   --> A_1  D_1  S_1  
     e(  4 -  4) =     -4.86157  eV     1   --> B_2  D_4  S_4  
     e(  5 -  5) =      5.94003  eV     1   --> A_1  D_1  S_1  
     e(  6 -  6) =      8.07084  eV     1   --> A_2  D_2  S_2  
     e(  7 -  7) =      9.16419  eV     1   --> B_2  D_4  S_4  
     e(  8 -  8) =     10.54254  eV     1   --> A_1  D_1  S_1  

 **************************************************************************

 **************************************************************************

                    xk=(   0.16667,   0.28868,   0.00000  )

     Band symmetry, C_2v (mm2)  point group:

     e(  1 -  1) =    -16.71839  eV     1   --> A_1  D_1  S_1  
     e(  2 -  2) =     -6.89281  eV     1   --> B_1  D_3  S_3  
     e(  3 -  3) =     -5.55112  eV     1   --> A_1  D_1  S_1  
     e(  4 -  4) =     -4.43834  eV     1   --> B_2  D_4  S_4  
     e(  5 -  5) =      6.44887  eV     1   --> A_1  D_1  S_1  
     e(  6 -  6) =      7.31667  eV     1   --> A_2  D_2  S_2  
     e(  7 -  7) =      9.61895  eV     1   --> B_2  D_4  S_4  
     e(  8 -  8) =     10.89782  eV     1   --> A_1  D_1  S_1  

 **************************************************************************

 **************************************************************************

                    xk=(   0.18333,   0.31754,   0.00000  )

     Band symmetry, C_2v (mm2)  point group:

     e(  1 -  1) =    -16.31505  eV     1   --> A_1  D_1  S_1  
     e(  2 -  2) =     -7.49112  eV     1   --> B_1  D_3  S_3  
     e(  3 -  3) =     -6.07817  eV     1   --> A_1  D_1  S_1  
     e(  4 -  4) =     -3.97322  eV     1   --> B_2  D_4  S_4  
     e(  5 -  5) =      6.57194  eV     1   --> A_2  D_2  S_2  
     e(  6 -  6) =      7.01037  eV     1   --> A_1  D_1  S_1  
     e(  7 -  7) =     10.10602  eV     1   --> B_2  D_4  S_4  
     e(  8 -  8) =     11.30415  eV     1   --> A_1  D_1  S_1  

 **************************************************************************

 **************************************************************************

                    xk=(   0.20000,   0.34641,   0.00000  )

     Band symmetry, C_2v (mm2)  point group:

     e(  1 -  1) =    -15.87764  eV     1   --> A_1  D_1  S_1  
     e(  2 -  2) =     -8.06679  eV     1   --> B_1  D_3  S_3  
     e(  3 -  3) =     -6.59959  eV     1   --> A_1  D_1  S_1  
     e(  4 -  4) =     -3.47687  eV     1   --> B_2  D_4  S_4  
     e(  5 -  5) =      5.84018  eV     1   --> A_2  D_2  S_2  
     e(  6 -  6) =      7.62396  eV     1   --> A_1  D_1  S_1  
     e(  7 -  7) =     10.61008  eV     1   --> B_2  D_4  S_4  
     e(  8 -  8) =     11.73797  eV     1   --> A_1  D_1  S_1  

 **************************************************************************

 **************************************************************************

                    xk=(   0.21667,   0.37528,   0.00000  )

     Band symmetry, C_2v (mm2)  point group:

     e(  1 -  1) =    -15.40804  eV     1   --> A_1  D_1  S_1  
     e(  2 -  2) =     -8.63193  eV     1   --> B_1  D_3  S_3  
     e(  3 -  3) =     -7.11884  eV     1   --> A_1  D_1  S_1  
     e(  4 -  4) =     -2.95429  eV     1   --> B_2  D_4  S_4  
     e(  5 -  5) =      5.09729  eV     1   --> A_2  D_2  S_2  
     e(  6 -  6) =      8.28865  eV     1   --> A_1  D_1  S_1  
     e(  7 -  7) =     11.10502  eV     1   --> B_2  D_4  S_4  
     e(  8 -  8) =     12.18990  eV     1   --> A_1  D_1  S_1  

 **************************************************************************

 **************************************************************************

                    xk=(   0.23333,   0.40415,   0.00000  )

     Band symmetry, C_2v (mm2)  point group:

     e(  1 -  1) =    -14.90706  eV     1   --> A_1  D_1  S_1  
     e(  2 -  2) =     -9.16314  eV     1   --> B_1  D_3  S_3  
     e(  3 -  3) =     -7.61439  eV     1   --> A_1  D_1  S_1  
     e(  4 -  4) =     -2.40306  eV     1   --> B_2  D_4  S_4  
     e(  5 -  5) =      4.40841  eV     1   --> A_2  D_2  S_2  
     e(  6 -  6) =      9.00339  eV     1   --> A_1  D_1  S_1  
     e(  7 -  7) =     11.54610  eV     1   --> B_2  D_4  S_4  
     e(  8 -  8) =     12.66596  eV     1   --> A_1  D_1  S_1  

 **************************************************************************

 **************************************************************************

                    xk=(   0.25000,   0.43301,   0.00000  )

     Band symmetry, C_2v (mm2)  point group:

     e(  1 -  1) =    -14.37788  eV     1   --> A_1  D_1  S_1  
     e(  2 -  2) =     -9.66543  eV     1   --> B_1  D_3  S_3  
     e(  3 -  3) =     -8.08340  eV     1   --> A_1  D_1  S_1  
     e(  4 -  4) =     -1.83504  eV     1   --> B_2  D_4  S_4  
     e(  5 -  5) =      3.73884  eV     1   --> A_2  D_2  S_2  
     e(  6 -  6) =      9.76584  eV     1   --> A_1  D_1  S_1  
     e(  7 -  7) =     11.85256  eV     1   --> B_2  D_4  S_4  
     e(  8 -  8) =     13.15237  eV     1   --> A_1  D_1  S_1  

 **************************************************************************

 **************************************************************************

                    xk=(   0.26667,   0.46188,   0.00000  )

     Band symmetry, C_2v (mm2)  point group:

     e(  1 -  1) =    -13.82712  eV     1   --> A_1  D_1  S_1  
     e(  2 -  2) =    -10.14172  eV     1   --> B_1  D_3  S_3  
     e(  3 -  3) =     -8.53661  eV     1   --> A_1  D_1  S_1  
     e(  4 -  4) =     -1.25894  eV     1   --> B_2  D_4  S_4  
     e(  5 -  5) =      3.10023  eV     1   --> A_2  D_2  S_2  
     e(  6 -  6) =     10.57122  eV     1   --> A_1  D_1  S_1  
     e(  7 -  7) =     11.95627  eV     1   --> B_2  D_4  S_4  
     e(  8 -  8) =     13.59257  eV     1   --> A_1  D_1  S_1  

 **************************************************************************

 **************************************************************************

                    xk=(   0.28333,   0.49075,   0.00000  )

     Band symmetry, C_2v (mm2)  point group:

     e(  1 -  1) =    -13.26027  eV     1   --> A_1  D_1  S_1  
     e(  2 -  2) =    -10.58659  eV     1   --> B_1  D_3  S_3  
     e(  3 -  3) =     -8.94888  eV     1   --> A_1  D_1  S_1  
     e(  4 -  4) =     -0.68175  eV     1   --> B_2  D_4  S_4  
     e(  5 -  5) =      2.49656  eV     1   --> A_2  D_2  S_2  
     e(  6 -  6) =     11.41279  eV     1   --> A_1  D_1  S_1  
     e(  7 -  7) =     11.88875  eV     1   --> B_2  D_4  S_4  
     e(  8 -  8) =     13.84550  eV     1   --> B_1  D_3  S_3  

 **************************************************************************

 **************************************************************************

                    xk=(   0.30000,   0.51962,   0.00000  )

     Band symmetry, C_2v (mm2)  point group:

     e(  1 -  1) =    -12.69154  eV     1   --> A_1  D_1  S_1  
     e(  2 -  2) =    -10.99891  eV     1   --> B_1  D_3  S_3  
     e(  3 -  3) =     -9.29787  eV     1   --> A_1  D_1  S_1  
     e(  4 -  4) =     -0.11297  eV     1   --> B_2  D_4  S_4  
     e(  5 -  5) =      1.93047  eV     1   --> A_2  D_2  S_2  
     e(  6 -  6) =     11.75038  eV     1   --> B_2  D_4  S_4  
     e(  7 -  7) =     12.27199  eV     1   --> A_1  D_1  S_1  
     e(  8 -  8) =     13.90243  eV     1   --> B_1  D_3  S_3  

 **************************************************************************

 **************************************************************************

                    xk=(   0.31667,   0.54848,   0.00000  )

     Band symmetry, C_2v (mm2)  point group:

     e(  1 -  1) =    -12.15840  eV     1   --> A_1  D_1  S_1  
     e(  2 -  2) =    -11.37930  eV     1   --> B_1  D_3  S_3  
     e(  3 -  3) =     -9.56294  eV     1   --> A_1  D_1  S_1  
     e(  4 -  4) =      0.42373  eV     1   --> B_2  D_4  S_4  
     e(  5 -  5) =      1.40578  eV     1   --> A_2  D_2  S_2  
     e(  6 -  6) =     11.63193  eV     1   --> B_2  D_4  S_4  
     e(  7 -  7) =     13.09188  eV     1   --> A_1  D_1  S_1  
     e(  8 -  8) =     13.83972  eV     1   --> B_1  D_3  S_3  

 **************************************************************************

 **************************************************************************

                    xk=(   0.33333,   0.57735,   0.00000  )

     zone border point and non-symmorphic group 
     symmetry decomposition not available

 **************************************************************************

 **************************************************************************

                    xk=(   0.30000,   0.57735,   0.00000  )

     zone border point and non-symmorphic group 
     symmetry decomposition not available

 **************************************************************************

 **************************************************************************

                    xk=(   0.26667,   0.57735,   0.00000  )

     zone border point and non-symmorphic group 
     symmetry decomposition not available

 **************************************************************************

 **************************************************************************

                    xk=(   0.23333,   0.57735,   0.00000  )

     zone border point and non-symmorphic group 
     symmetry decomposition not available

 **************************************************************************

 **************************************************************************

                    xk=(   0.20000,   0.57735,   0.00000  )

     zone border point and non-symmorphic group 
     symmetry decomposition not available

 **************************************************************************

 **************************************************************************

                    xk=(   0.16667,   0.57735,   0.00000  )

     zone border point and non-symmorphic group 
     symmetry decomposition not available

 **************************************************************************

 **************************************************************************

                    xk=(   0.13333,   0.57735,   0.00000  )

     zone border point and non-symmorphic group 
     symmetry decomposition not available

 **************************************************************************

 **************************************************************************

                    xk=(   0.10000,   0.57735,   0.00000  )

     zone border point and non-symmorphic group 
     symmetry decomposition not available

 **************************************************************************

 **************************************************************************

                    xk=(   0.06667,   0.57735,   0.00000  )

     zone border point and non-symmorphic group 
     symmetry decomposition not available

 **************************************************************************

 **************************************************************************

                    xk=(   0.03333,   0.57735,   0.00000  )

     zone border point and non-symmorphic group 
     symmetry decomposition not available

 **************************************************************************

 **************************************************************************

                    xk=(   0.00000,   0.57735,   0.00000  )

     zone border point and non-symmorphic group 
     symmetry decomposition not available

 **************************************************************************

 **************************************************************************

                    xk=(   0.00000,   0.54339,   0.00000  )

     point group C_2v (mm2) 
     there are  4 classes
     the character table:

       E     C2    s_v   s_v' 
A_1    1.00  1.00  1.00  1.00
A_2    1.00  1.00 -1.00 -1.00
B_1    1.00 -1.00  1.00 -1.00
B_2    1.00 -1.00 -1.00  1.00

     the symmetry operations in each class and the name of the first element:

     E        1
                                                                 
     C2       2
                                                                 
     s_v      3
                                                                 
     s_v'     4
                                                                 

     Band symmetry, C_2v (mm2)  point group:

     e(  1 -  1) =    -13.71368  eV     1   --> A_1  D_1  S_1  
     e(  2 -  2) =    -12.05363  eV     1   --> A_1  D_1  S_1  
     e(  3 -  3) =     -5.53522  eV     1   --> B_1  D_3  S_3  
     e(  4 -  4) =     -1.57570  eV     1   --> B_2  D_4  S_4  
     e(  5 -  5) =      2.75725  eV     1   --> B_2  D_4  S_4  
     e(  6 -  6) =      8.30193  eV     1   --> A_1  D_1  S_1  
     e(  7 -  7) =     10.85257  eV     1   --> A_1  D_1  S_1  
     e(  8 -  8) =     12.68259  eV     1   --> A_1  D_1  S_1  

 **************************************************************************

 **************************************************************************

                    xk=(   0.00000,   0.50943,   0.00000  )

     Band symmetry, C_2v (mm2)  point group:

     e(  1 -  1) =    -14.23333  eV     1   --> A_1  D_1  S_1  
     e(  2 -  2) =    -11.44268  eV     1   --> A_1  D_1  S_1  
     e(  3 -  3) =     -5.47442  eV     1   --> B_1  D_3  S_3  
     e(  4 -  4) =     -1.91622  eV     1   --> B_2  D_4  S_4  
     e(  5 -  5) =      3.19340  eV     1   --> B_2  D_4  S_4  
     e(  6 -  6) =      8.33204  eV     1   --> A_1  D_1  S_1  
     e(  7 -  7) =     10.01058  eV     1   --> A_1  D_1  S_1  
     e(  8 -  8) =     12.89856  eV     1   --> B_2  D_4  S_4  

 **************************************************************************

 **************************************************************************

                    xk=(   0.00000,   0.47546,   0.00000  )

     Band symmetry, C_2v (mm2)  point group:

     e(  1 -  1) =    -14.76890  eV     1   --> A_1  D_1  S_1  
     e(  2 -  2) =    -10.75535  eV     1   --> A_1  D_1  S_1  
     e(  3 -  3) =     -5.36907  eV     1   --> B_1  D_3  S_3  
     e(  4 -  4) =     -2.37157  eV     1   --> B_2  D_4  S_4  
     e(  5 -  5) =      3.80661  eV     1   --> B_2  D_4  S_4  
     e(  6 -  6) =      8.38059  eV     1   --> A_1  D_1  S_1  
     e(  7 -  7) =      9.22230  eV     1   --> A_1  D_1  S_1  
     e(  8 -  8) =     12.21493  eV     1   --> B_2  D_4  S_4  

 **************************************************************************

 **************************************************************************

                    xk=(   0.00000,   0.44150,   0.00000  )

     Band symmetry, C_2v (mm2)  point group:

     e(  1 -  1) =    -15.28489  eV     1   --> A_1  D_1  S_1  
     e(  2 -  2) =    -10.02085  eV     1   --> A_1  D_1  S_1  
     e(  3 -  3) =     -5.22911  eV     1   --> B_1  D_3  S_3  
     e(  4 -  4) =     -2.87139  eV     1   --> B_2  D_4  S_4  
     e(  5 -  5) =      4.53475  eV     1   --> B_2  D_4  S_4  
     e(  6 -  6) =      8.35889  eV     1   --> A_1  D_1  S_1  
     e(  7 -  7) =      8.57345  eV     1   --> A_1  D_1  S_1  
     e(  8 -  8) =     11.55378  eV     1   --> B_2  D_4  S_4  

 **************************************************************************

 **************************************************************************

                    xk=(   0.00000,   0.40754,   0.00000  )

     Band symmetry, C_2v (mm2)  point group:

     e(  1 -  1) =    -15.77135  eV     1   --> A_1  D_1  S_1  
     e(  2 -  2) =     -9.26955  eV     1   --> A_1  D_1  S_1  
     e(  3 -  3) =     -5.05856  eV     1   --> B_1  D_3  S_3  
     e(  4 -  4) =     -3.38517  eV     1   --> B_2  D_4  S_4  
     e(  5 -  5) =      5.30327  eV     1   --> B_2  D_4  S_4  
     e(  6 -  6) =      7.75918  eV     1   --> A_1  D_1  S_1  
     e(  7 -  7) =      8.57079  eV     1   --> A_1  D_1  S_1  
     e(  8 -  8) =     10.92755  eV     1   --> B_2  D_4  S_4  

 **************************************************************************

 **************************************************************************

                    xk=(   0.00000,   0.37358,   0.00000  )

     Band symmetry, C_2v (mm2)  point group:

     e(  1 -  1) =    -16.22708  eV     1   --> A_1  D_1  S_1  
     e(  2 -  2) =     -8.50069  eV     1   --> A_1  D_1  S_1  
     e(  3 -  3) =     -4.84660  eV     1   --> B_1  D_3  S_3  
     e(  4 -  4) =     -3.89012  eV     1   --> B_2  D_4  S_4  
     e(  5 -  5) =      6.11199  eV     1   --> B_2  D_4  S_4  
     e(  6 -  6) =      7.12812  eV     1   --> A_1  D_1  S_1  
     e(  7 -  7) =      8.66395  eV     1   --> A_1  D_1  S_1  
     e(  8 -  8) =     10.34051  eV     1   --> B_2  D_4  S_4  

 **************************************************************************

 **************************************************************************

                    xk=(   0.00000,   0.33962,   0.00000  )

     Band symmetry, C_2v (mm2)  point group:

     e(  1 -  1) =    -16.64394  eV     1   --> A_1  D_1  S_1  
     e(  2 -  2) =     -7.71802  eV     1   --> A_1  D_1  S_1  
     e(  3 -  3) =     -4.59839  eV     1   --> B_1  D_3  S_3  
     e(  4 -  4) =     -4.35853  eV     1   --> B_2  D_4  S_4  
     e(  5 -  5) =      6.54781  eV     1   --> A_1  D_1  S_1  
     e(  6 -  6) =      6.93840  eV     1   --> B_2  D_4  S_4  
     e(  7 -  7) =      8.77867  eV     1   --> A_1  D_1  S_1  
     e(  8 -  8) =      9.80351  eV     1   --> B_2  D_4  S_4  

 **************************************************************************

 **************************************************************************

                    xk=(   0.00000,   0.30566,   0.00000  )

     Band symmetry, C_2v (mm2)  point group:

     e(  1 -  1) =    -17.02455  eV     1   --> A_1  D_1  S_1  
     e(  2 -  2) =     -6.94400  eV     1   --> A_1  D_1  S_1  
     e(  3 -  3) =     -4.79398  eV     1   --> B_2  D_4  S_4  
     e(  4 -  4) =     -4.32959  eV     1   --> B_1  D_3  S_3  
     e(  5 -  5) =      6.02103  eV     1   --> A_1  D_1  S_1  
     e(  6 -  6) =      7.74358  eV     1   --> B_2  D_4  S_4  
     e(  7 -  7) =      8.90059  eV     1   --> A_1  D_1  S_1  
     e(  8 -  8) =      9.32148  eV     1   --> B_2  D_4  S_4  

 **************************************************************************

 **************************************************************************

                    xk=(   0.00000,   0.27169,   0.00000  )

     Band symmetry, C_2v (mm2)  point group:

     e(  1 -  1) =    -17.36629  eV     1   --> A_1  D_1  S_1  
     e(  2 -  2) =     -6.16616  eV     1   --> A_1  D_1  S_1  
     e(  3 -  3) =     -5.19032  eV     1   --> B_2  D_4  S_4  
     e(  4 -  4) =     -4.03530  eV     1   --> B_1  D_3  S_3  
     e(  5 -  5) =      5.54859  eV     1   --> A_1  D_1  S_1  
     e(  6 -  6) =      8.45552  eV     1   --> B_2  D_4  S_4  
     e(  7 -  7) =      8.96460  eV     1   --> B_2  D_4  S_4  
     e(  8 -  8) =      9.01828  eV     1   --> A_1  D_1  S_1  

 **************************************************************************

 **************************************************************************

                    xk=(   0.00000,   0.23773,   0.00000  )

     Band symmetry, C_2v (mm2)  point group:

     e(  1 -  1) =    -17.67056  eV     1   --> A_1  D_1  S_1  
     e(  2 -  2) =     -5.54622  eV     1   --> B_2  D_4  S_4  
     e(  3 -  3) =     -5.41903  eV     1   --> A_1  D_1  S_1  
     e(  4 -  4) =     -3.72071  eV     1   --> B_1  D_3  S_3  
     e(  5 -  5) =      5.13113  eV     1   --> A_1  D_1  S_1  
     e(  6 -  6) =      8.39808  eV     1   --> B_2  D_4  S_4  
     e(  7 -  7) =      9.11126  eV     1   --> A_1  D_1  S_1  
     e(  8 -  8) =      9.39294  eV     1   --> B_2  D_4  S_4  

 **************************************************************************

 **************************************************************************

                    xk=(   0.00000,   0.20377,   0.00000  )

     Band symmetry, C_2v (mm2)  point group:

     e(  1 -  1) =    -17.93384  eV     1   --> A_1  D_1  S_1  
     e(  2 -  2) =     -5.85575  eV     1   --> B_2  D_4  S_4  
     e(  3 -  3) =     -4.67271  eV     1   --> A_1  D_1  S_1  
     e(  4 -  4) =     -3.40439  eV     1   --> B_1  D_3  S_3  
     e(  5 -  5) =      4.76922  eV     1   --> A_1  D_1  S_1  
     e(  6 -  6) =      8.07910  eV     1   --> B_2  D_4  S_4  
     e(  7 -  7) =      9.20344  eV     1   --> A_1  D_1  S_1  
     e(  8 -  8) =     10.09398  eV     1   --> B_2  D_4  S_4  

 **************************************************************************

 **************************************************************************

                    xk=(   0.00000,   0.16981,   0.00000  )

     Band symmetry, C_2v (mm2)  point group:

     e(  1 -  1) =    -18.15776  eV     1   --> A_1  D_1  S_1  
     e(  2 -  2) =     -6.12070  eV     1   --> B_2  D_4  S_4  
     e(  3 -  3) =     -4.00263  eV     1   --> A_1  D_1  S_1  
     e(  4 -  4) =     -3.09386  eV     1   --> B_1  D_3  S_3  
     e(  5 -  5) =      4.46270  eV     1   --> A_1  D_1  S_1  
     e(  6 -  6) =      7.79328  eV     1   --> B_2  D_4  S_4  
     e(  7 -  7) =      9.24466  eV     1   --> A_1  D_1  S_1  
     e(  8 -  8) =     10.12778  eV     1   --> A_1  D_1  S_1  

 **************************************************************************

 **************************************************************************

                    xk=(   0.00000,   0.13585,   0.00000  )

     Band symmetry, C_2v (mm2)  point group:

     e(  1 -  1) =    -18.34106  eV     1   --> A_1  D_1  S_1  
     e(  2 -  2) =     -6.33851  eV     1   --> B_2  D_4  S_4  
     e(  3 -  3) =     -3.39193  eV     1   --> A_1  D_1  S_1  
     e(  4 -  4) =     -2.80070  eV     1   --> B_1  D_3  S_3  
     e(  5 -  5) =      4.21194  eV     1   --> A_1  D_1  S_1  
     e(  6 -  6) =      7.55619  eV     1   --> B_2  D_4  S_4  
     e(  7 -  7) =      9.27766  eV     1   --> A_1  D_1  S_1  
     e(  8 -  8) =      9.89030  eV     1   --> A_1  D_1  S_1  

 **************************************************************************

 **************************************************************************

                    xk=(   0.00000,   0.10189,   0.00000  )

     Band symmetry, C_2v (mm2)  point group:

     e(  1 -  1) =    -18.48429  eV     1   --> A_1  D_1  S_1  
     e(  2 -  2) =     -6.50874  eV     1   --> B_2  D_4  S_4  
     e(  3 -  3) =     -2.89743  eV     1   --> A_1  D_1  S_1  
     e(  4 -  4) =     -2.53202  eV     1   --> B_1  D_3  S_3  
     e(  5 -  5) =      4.01679  eV     1   --> A_1  D_1  S_1  
     e(  6 -  6) =      7.37061  eV     1   --> B_2  D_4  S_4  
     e(  7 -  7) =      9.26194  eV     1   --> A_1  D_1  S_1  
     e(  8 -  8) =      9.69722  eV     1   --> A_1  D_1  S_1  

 **************************************************************************

 **************************************************************************

                    xk=(   0.00000,   0.06792,   0.00000  )

     Band symmetry, C_2v (mm2)  point group:

     e(  1 -  1) =    -18.58655  eV     1   --> A_1  D_1  S_1  
     e(  2 -  2) =     -6.63171  eV     1   --> B_2  D_4  S_4  
     e(  3 -  3) =     -2.50664  eV     1   --> A_1  D_1  S_1  
     e(  4 -  4) =     -2.33736  eV     1   --> B_1  D_3  S_3  
     e(  5 -  5) =      3.87740  eV     1   --> A_1  D_1  S_1  
     e(  6 -  6) =      7.23730  eV     1   --> B_2  D_4  S_4  
     e(  7 -  7) =      9.24639  eV     1   --> A_1  D_1  S_1  
     e(  8 -  8) =      9.54775  eV     1   --> A_1  D_1  S_1  

 **************************************************************************

 **************************************************************************

                    xk=(   0.00000,   0.03396,   0.00000  )

     Band symmetry, C_2v (mm2)  point group:

     e(  1 -  1) =    -18.64764  eV     1   --> A_1  D_1  S_1  
     e(  2 -  2) =     -6.69767  eV     1   --> B_2  D_4  S_4  
     e(  3 -  3) =     -2.26164  eV     1   --> A_1  D_1  S_1  
     e(  4 -  4) =     -2.20687  eV     1   --> B_1  D_3  S_3  
     e(  5 -  5) =      3.79384  eV     1   --> A_1  D_1  S_1  
     e(  6 -  6) =      7.15960  eV     1   --> B_2  D_4  S_4  
     e(  7 -  7) =      9.24223  eV     1   --> A_1  D_1  S_1  
     e(  8 -  8) =      9.33768  eV     1   --> B_1  D_3  S_3  

 **************************************************************************

 **************************************************************************

                    xk=(   0.00000,   0.00000,   0.00000  )

     point group D_6h(6/mmm)
     there are 12 classes
     the character table:

       E     2C6   2C3   C2    3C2'  3C2'' i     2S3   2S6   s_h   3s_d  3s_v 
A_1g   1.00  1.00  1.00  1.00  1.00  1.00  1.00  1.00  1.00  1.00  1.00  1.00
A_2g   1.00  1.00  1.00  1.00 -1.00 -1.00  1.00  1.00  1.00  1.00 -1.00 -1.00
B_1g   1.00 -1.00  1.00 -1.00  1.00 -1.00  1.00 -1.00  1.00 -1.00  1.00 -1.00
B_2g   1.00 -1.00  1.00 -1.00 -1.00  1.00  1.00 -1.00  1.00 -1.00 -1.00  1.00
E_1g   2.00  1.00 -1.00 -2.00  0.00  0.00  2.00  1.00 -1.00 -2.00  0.00  0.00
E_2g   2.00 -1.00 -1.00  2.00  0.00  0.00  2.00 -1.00 -1.00  2.00  0.00  0.00
A_1u   1.00  1.00  1.00  1.00  1.00  1.00 -1.00 -1.00 -1.00 -1.00 -1.00 -1.00
A_2u   1.00  1.00  1.00  1.00 -1.00 -1.00 -1.00 -1.00 -1.00 -1.00  1.00  1.00
B_1u   1.00 -1.00  1.00 -1.00  1.00 -1.00 -1.00  1.00 -1.00  1.00 -1.00  1.00
B_2u   1.00 -1.00  1.00 -1.00 -1.00  1.00 -1.00  1.00 -1.00  1.00  1.00 -1.00
E_1u   2.00  1.00 -1.00 -2.00  0.00  0.00 -2.00 -1.00  1.00  2.00  0.00  0.00
E_2u   2.00 -1.00 -1.00  2.00  0.00  0.00 -2.00  1.00  1.00 -2.00  0.00  0.00

     the symmetry operations in each class and the name of the first element:

     E        1
                                                                 
     2C6      5    6
                                                                 
     2C3      7    8
                                                                 
     C2       2
                                                                 
     3C2'     4   12   11
                                                                 
     3C2''    3    9   10
                                                                 
     i       13
                                                                 
     2S3     17   18
                                                                 
     2S6     19   20
                                                                 
     s_h     14
                                                                 
     3s_d    16   24   23
                                                                 
     3s_v    15   21   22
                                                                 

     Band symmetry, D_6h(6/mmm) point group:

     e(  1 -  1) =    -18.66798  eV     1   --> A_1g           
     e(  2 -  2) =     -6.72126  eV     1   --> A_2u           
     e(  3 -  4) =     -2.15114  eV     2   --> E_2g           
     e(  5 -  5) =      3.76597  eV     1   --> A_1g           
     e(  6 -  6) =      7.13315  eV     1   --> A_2u           
     e(  7 -  8) =      9.25480  eV     2   --> E_1u           

 **************************************************************************

     BANDS        :     9.62s CPU         5.00s WALL


   This run was terminated on:  13:36:36  14Sep2019            

=------------------------------------------------------------------------------=
   JOB DONE.
=------------------------------------------------------------------------------=
