
     Program PWSCF v.6.3 starts on 14Sep2019 at 13:28:51 

     This program is part of the open-source Quantum ESPRESSO suite
     for quantum simulation of materials; please cite
         "P. Giannozzi et al., J. Phys.:Condens. Matter 21 395502 (2009);
         "P. Giannozzi et al., J. Phys.:Condens. Matter 29 465901 (2017);
          URL http://www.quantum-espresso.org", 
     in publications or presentations arising from this work. More details at
     http://www.quantum-espresso.org/quote

     Parallel version (MPI), running on     1 processors

     MPI processes distributed on     1 nodes
     Waiting for input...
     Reading input from standard input

     Current dimensions of program PWSCF are:
     Max number of different atomic species (ntypx) = 10
     Max number of k-points (npk) =  40000
     Max angular momentum in pseudopotentials (lmaxx) =  3

     Atomic positions and unit cell read from directory:
     /tmp/Graphene_1x1_PBE.save/

               file C.pbe-rrkjus.UPF: wavefunction(s)  2S 2P renormalized

     Subspace diagonalization in iterative solution of the eigenvalue problem:
     a serial algorithm will be used


     G-vector sticks info
     --------------------
     sticks:   dense  smooth     PW     G-vecs:    dense   smooth      PW
     Sum         301     121     37                12531     3147     647



     bravais-lattice index     =            4
     lattice parameter (alat)  =       4.6540  a.u.
     unit-cell volume          =     261.8973 (a.u.)^3
     number of atoms/cell      =            2
     number of atomic types    =            1
     number of electrons       =         8.00
     number of Kohn-Sham states=            8
     kinetic-energy cutoff     =      20.0000  Ry
     charge density cutoff     =     200.0000  Ry
     Exchange-correlation      =  SLA  PW   PBE  PBE ( 1  4  3  4 0 0)

     celldm(1)=   4.654000  celldm(2)=   0.000000  celldm(3)=   3.000000
     celldm(4)=   0.000000  celldm(5)=   0.000000  celldm(6)=   0.000000

     crystal axes: (cart. coord. in units of alat)
               a(1) = (   1.000000   0.000000   0.000000 )  
               a(2) = (  -0.500000   0.866025   0.000000 )  
               a(3) = (   0.000000   0.000000   3.000000 )  

     reciprocal axes: (cart. coord. in units 2 pi/alat)
               b(1) = (  1.000000  0.577350 -0.000000 )  
               b(2) = (  0.000000  1.154701  0.000000 )  
               b(3) = (  0.000000 -0.000000  0.333333 )  


     PseudoPot. # 1 for C  read from file:
     /home/matic/test.QE-2019/pseudo/C.pbe-rrkjus.UPF
     MD5 check sum: 00fb224312de0c5b6853bd333518df6f
     Pseudo is Ultrasoft, Zval =  4.0
     Generated by new atomic code, or converted to UPF format
     Using radial grid of  627 points,  4 beta functions with: 
                l(1) =   0
                l(2) =   0
                l(3) =   1
                l(4) =   1
     Q(r) pseudized with 0 coefficients 


     atomic species   valence    mass     pseudopotential
        C              4.00    12.01070     C ( 1.00)

     24 Sym. Ops., with inversion, found (12 have fractional translation)



   Cartesian axes

     site n.     atom                  positions (alat units)
         1           C   tau(   1) = (   0.0000000   0.0000000   0.0000000  )
         2           C   tau(   2) = (   0.0000000   0.5773503   0.0000000  )

     number of k points=    19 (tetrahedron method)
                       cart. coord. in units 2pi/alat
        k(    1) = (   0.0000000   0.0000000   0.0000000), wk =   0.0138889
        k(    2) = (   0.0000000   0.0962250   0.0000000), wk =   0.0833333
        k(    3) = (   0.0000000   0.1924501   0.0000000), wk =   0.0833333
        k(    4) = (   0.0000000   0.2886751   0.0000000), wk =   0.0833333
        k(    5) = (   0.0000000   0.3849002   0.0000000), wk =   0.0833333
        k(    6) = (   0.0000000   0.4811252   0.0000000), wk =   0.0833333
        k(    7) = (   0.0000000  -0.5773503   0.0000000), wk =   0.0416667
        k(    8) = (   0.0833333   0.1443376   0.0000000), wk =   0.0833333
        k(    9) = (   0.0833333   0.2405626   0.0000000), wk =   0.1666667
        k(   10) = (   0.0833333   0.3367877   0.0000000), wk =   0.1666667
        k(   11) = (   0.0833333   0.4330127   0.0000000), wk =   0.1666667
        k(   12) = (   0.0833333   0.5292377   0.0000000), wk =   0.1666667
        k(   13) = (   0.1666667   0.2886751   0.0000000), wk =   0.0833333
        k(   14) = (   0.1666667   0.3849002   0.0000000), wk =   0.1666667
        k(   15) = (   0.1666667   0.4811252   0.0000000), wk =   0.1666667
        k(   16) = (   0.1666667   0.5773503   0.0000000), wk =   0.0833333
        k(   17) = (   0.2500000   0.4330127   0.0000000), wk =   0.0833333
        k(   18) = (   0.2500000   0.5292377   0.0000000), wk =   0.1666667
        k(   19) = (   0.3333333   0.5773503   0.0000000), wk =   0.0277778

     Dense  grid:    12531 G-vectors     FFT dimensions: (  24,  24,  64)

     Smooth grid:     3147 G-vectors     FFT dimensions: (  15,  15,  40)

     Estimated max dynamical RAM per process >      13.13 MB

     The potential is recalculated from file :
     /tmp/Graphene_1x1_PBE.save/charge-density.dat


     negative rho (up, down):  3.199E-06 0.000E+00
     Starting wfcs are    8 randomized atomic wfcs

     Band Structure Calculation
     Davidson diagonalization with overlap

     ethr =  1.25E-10,  avg # of iterations = 17.0

     total cpu time spent up to now is        0.8 secs

     End of band structure calculation

          k = 0.0000 0.0000 0.0000 (   397 PWs)   bands (ev):

   -18.6680  -6.7213  -2.1511  -2.1511   3.7660   7.1331   9.2548   9.2548

          k = 0.0000 0.0962 0.0000 (   403 PWs)   bands (ev):

   -18.5041  -6.5324  -2.8230  -2.4942   3.9897   7.3448   9.2596   9.6694

          k = 0.0000 0.1925 0.0000 (   402 PWs)   bands (ev):

   -18.0132  -5.9493  -4.4477  -3.3004   4.6609   7.9788   9.2120  10.3139

          k = 0.0000 0.2887 0.0000 (   396 PWs)   bands (ev):

   -17.2002  -6.5538  -4.9972  -4.1849   5.7779   8.1280   8.9600   9.1117

          k = 0.0000 0.3849 0.0000 (   398 PWs)   bands (ev):

   -16.0800  -8.7588  -4.9210  -3.7274   5.8402   7.3331   8.6297  10.5305

          k = 0.0000 0.4811 0.0000 (   392 PWs)   bands (ev):

   -14.6805 -10.8730  -5.3886  -2.2910   3.6956   8.3724   9.3494  12.3278

          k = 0.0000-0.5774 0.0000 (   390 PWs)   bands (ev):

   -13.4158 -12.3790  -5.5474  -1.4434   2.6002   8.2920  11.6747  11.8196

          k = 0.0833 0.1443 0.0000 (   403 PWs)   bands (ev):

   -18.1766  -6.1472  -3.8426  -3.1866   4.4374   7.7687   9.5454  10.1341

          k = 0.0833 0.2406 0.0000 (   405 PWs)   bands (ev):

   -17.5249  -5.5634  -5.3790  -4.1834   5.3319   8.5830   9.0595   9.7122

          k = 0.0833 0.3368 0.0000 (   392 PWs)   bands (ev):

   -16.5578  -7.6324  -5.0641  -4.2577   6.6704   6.8781   9.4938   9.8743

          k = 0.0833 0.4330 0.0000 (   395 PWs)   bands (ev):

   -15.2953  -9.7665  -5.7020  -2.8737   4.6484   8.4391   9.2212  11.4643

          k = 0.0833 0.5292 0.0000 (   392 PWs)   bands (ev):

   -13.8133 -11.7154  -6.0318  -1.5519   2.8727   9.0392  10.6563  13.2014

          k = 0.1667 0.2887 0.0000 (   399 PWs)   bands (ev):

   -16.7184  -6.8928  -5.5511  -4.4383   6.4489   7.3167   9.6189  10.8978

          k = 0.1667 0.3849 0.0000 (   392 PWs)   bands (ev):

   -15.6074  -8.6258  -6.6004  -3.1791   5.3624   8.0052  10.9362  11.1601

          k = 0.1667 0.4811 0.0000 (   394 PWs)   bands (ev):

   -14.2296 -10.5404  -7.1824  -1.7479   3.4342   9.9824  10.9642  12.2659

          k = 0.1667 0.5774 0.0000 (   390 PWs)   bands (ev):

   -12.9948 -11.9778  -7.3658  -0.8506   2.3640  10.8631  12.2591  12.4407

          k = 0.2500 0.4330 0.0000 (   391 PWs)   bands (ev):

   -14.3779  -9.6654  -8.0834  -1.8350   3.7388   9.7658  11.8526  13.1524

          k = 0.2500 0.5292 0.0000 (   392 PWs)   bands (ev):

   -12.9541 -11.0870  -8.7937  -0.4449   2.2133  11.8952  11.9575  13.1350

          k = 0.3333 0.5774 0.0000 (   381 PWs)   bands (ev):

   -11.7301 -11.7301  -9.6762   0.9203   0.9203  11.5853  13.6508  13.6508

     the Fermi energy is     0.9203 ev

     Writing output data file Graphene_1x1_PBE.save/

     init_run     :      0.13s CPU      0.14s WALL (       1 calls)
     electrons    :      1.26s CPU      0.66s WALL (       1 calls)

     Called by init_run:
     wfcinit      :      0.00s CPU      0.00s WALL (       1 calls)
     potinit      :      0.03s CPU      0.03s WALL (       1 calls)
     hinit0       :      0.09s CPU      0.09s WALL (       1 calls)

     Called by electrons:
     c_bands      :      1.25s CPU      0.65s WALL (       1 calls)
     v_of_rho     :      0.03s CPU      0.03s WALL (       1 calls)
     newd         :      0.01s CPU      0.01s WALL (       1 calls)

     Called by c_bands:
     init_us_2    :      0.00s CPU      0.00s WALL (      19 calls)
     cegterg      :      1.15s CPU      0.59s WALL (      22 calls)

     Called by sum_band:

     Called by *egterg:
     h_psi        :      0.76s CPU      0.38s WALL (     364 calls)
     s_psi        :      0.02s CPU      0.01s WALL (     364 calls)
     g_psi        :      0.03s CPU      0.02s WALL (     323 calls)
     cdiaghg      :      0.21s CPU      0.12s WALL (     342 calls)

     Called by h_psi:
     h_psi:pot    :      0.76s CPU      0.38s WALL (     364 calls)
     h_psi:calbec :      0.03s CPU      0.02s WALL (     364 calls)
     vloc_psi     :      0.67s CPU      0.33s WALL (     364 calls)
     add_vuspsi   :      0.05s CPU      0.03s WALL (     364 calls)

     General routines
     calbec       :      0.03s CPU      0.02s WALL (     364 calls)
     fft          :      0.01s CPU      0.01s WALL (      13 calls)
     ffts         :      0.00s CPU      0.00s WALL (       1 calls)
     fftw         :      0.50s CPU      0.25s WALL (    3626 calls)
     interpolate  :      0.00s CPU      0.00s WALL (       1 calls)
     davcio       :      0.00s CPU      0.00s WALL (      38 calls)

     Parallel routines

     PWSCF        :     1.47s CPU         0.87s WALL


   This run was terminated on:  13:28:52  14Sep2019            

=------------------------------------------------------------------------------=
   JOB DONE.
=------------------------------------------------------------------------------=
