### Running on host: cl

     Program POST-PROC v.6.7MaX starts on 17Apr2021 at 16: 1: 1 

     This program is part of the open-source Quantum ESPRESSO suite
     for quantum simulation of materials; please cite
         "P. Giannozzi et al., J. Phys.:Condens. Matter 21 395502 (2009);
         "P. Giannozzi et al., J. Phys.:Condens. Matter 29 465901 (2017);
          URL http://www.quantum-espresso.org", 
     in publications or presentations arising from this work. More details at
     http://www.quantum-espresso.org/quote

     Parallel version (MPI), running on     2 processors

     MPI processes distributed on     1 nodes
     R & G space division:  proc/nbgrp/npool/nimage =       2

     Reading xml data from directory:

     /tmp/QE/al.save/
     file Al.pbe-n-kjpaw_psl.1.0.0.UPF: wavefunction(s)  3S 3P renormalized

     IMPORTANT: XC functional enforced from input :
     Exchange-correlation= PBE
                           (   1   4   3   4   0   0   0)
     Any further DFT definition will be discarded
     Please, verify this is what you really want


     Parallelization info
     --------------------
     sticks:   dense  smooth     PW     G-vecs:    dense   smooth      PW
     Min         477     117     42                 9943     1138     264
     Max         478     118     43                 9948     1139     267
     Sum         955     235     85                19891     2277     531


     Calling punch_plot, plot_num =  17
       Reconstructing all-electron valence charge.
     Writing data to file  al.pp
     Reading data from file  al.pp

     Writing data to be plotted to file all-electron-VALENCE-chdens.xsf
     Plot Type: 3D                     Output format: XCrySDen     

     POST-PROC    :      0.82s CPU      0.72s WALL


   This run was terminated on:  16: 1: 2  17Apr2021            

=------------------------------------------------------------------------------=
   JOB DONE.
=------------------------------------------------------------------------------=
