### Running on host: cl

     Program PWSCF v.6.7MaX starts on 17Apr2021 at 14:26:20 

     This program is part of the open-source Quantum ESPRESSO suite
     for quantum simulation of materials; please cite
         "P. Giannozzi et al., J. Phys.:Condens. Matter 21 395502 (2009);
         "P. Giannozzi et al., J. Phys.:Condens. Matter 29 465901 (2017);
          URL http://www.quantum-espresso.org", 
     in publications or presentations arising from this work. More details at
     http://www.quantum-espresso.org/quote

     Parallel version (MPI), running on     2 processors

     MPI processes distributed on     1 nodes
     R & G space division:  proc/nbgrp/npool/nimage =       2
     Reading input from pw.Al.scf.in

     Current dimensions of program PWSCF are:
     Max number of different atomic species (ntypx) = 10
     Max number of k-points (npk) =  40000
     Max angular momentum in pseudopotentials (lmaxx) =  3

     Subspace diagonalization in iterative solution of the eigenvalue problem:
     a serial algorithm will be used


     Parallelization info
     --------------------
     sticks:   dense  smooth     PW     G-vecs:    dense   smooth      PW
     Min          45      45     18                  304      304      83
     Max          46      46     19                  305      305      86
     Sum          91      91     37                  609      609     169



     bravais-lattice index     =            2
     lattice parameter (alat)  =       7.5000  a.u.
     unit-cell volume          =     105.4688 (a.u.)^3
     number of atoms/cell      =            1
     number of atomic types    =            1
     number of electrons       =         3.00
     number of Kohn-Sham states=            6
     kinetic-energy cutoff     =      12.0000  Ry
     charge density cutoff     =      48.0000  Ry
     scf convergence threshold =      1.0E-06
     mixing beta               =       0.7000
     number of iterations used =            8  plain     mixing
     Exchange-correlation= SLA  PZ   NOGX NOGC
                           (   1   1   0   0   0   0   0)

     celldm(1)=   7.500000  celldm(2)=   0.000000  celldm(3)=   0.000000
     celldm(4)=   0.000000  celldm(5)=   0.000000  celldm(6)=   0.000000

     crystal axes: (cart. coord. in units of alat)
               a(1) = (  -0.500000   0.000000   0.500000 )  
               a(2) = (   0.000000   0.500000   0.500000 )  
               a(3) = (  -0.500000   0.500000   0.000000 )  

     reciprocal axes: (cart. coord. in units 2 pi/alat)
               b(1) = ( -1.000000 -1.000000  1.000000 )  
               b(2) = (  1.000000  1.000000  1.000000 )  
               b(3) = ( -1.000000  1.000000 -1.000000 )  


     PseudoPot. # 1 for Al read from file:
     /home/test/QE-2021/pseudo/Al.pz-vbc.UPF
     MD5 check sum: 69dcd8cd7cc1bedf536afd524f174f6a
     Pseudo is Norm-conserving, Zval =  3.0
     Generated by new atomic code, or converted to UPF format
     Using radial grid of  171 points,  2 beta functions with: 
                l(1) =   0
                l(2) =   1

     atomic species   valence    mass     pseudopotential
        Al             3.00    26.98000     Al( 1.00)

     48 Sym. Ops., with inversion, found



   Cartesian axes

     site n.     atom                  positions (alat units)
         1           Al  tau(   1) = (   0.0000000   0.0000000   0.0000000  )

     number of k points=    28  Marzari-Vanderbilt smearing, width (Ry)=  0.0600
                       cart. coord. in units 2pi/alat
        k(    1) = (  -0.0833333   0.0833333   0.0833333), wk =   0.0185185
        k(    2) = (  -0.2500000   0.2500000  -0.0833333), wk =   0.0555556
        k(    3) = (  -0.4166667   0.4166667  -0.2500000), wk =   0.0555556
        k(    4) = (   0.4166667  -0.4166667   0.5833333), wk =   0.0555556
        k(    5) = (   0.2500000  -0.2500000   0.4166667), wk =   0.0555556
        k(    6) = (   0.0833333  -0.0833333   0.2500000), wk =   0.0555556
        k(    7) = (  -0.0833333   0.4166667   0.0833333), wk =   0.0555556
        k(    8) = (  -0.2500000   0.5833333  -0.0833333), wk =   0.1111111
        k(    9) = (   0.5833333  -0.2500000   0.7500000), wk =   0.1111111
        k(   10) = (   0.4166667  -0.0833333   0.5833333), wk =   0.1111111
        k(   11) = (   0.2500000   0.0833333   0.4166667), wk =   0.1111111
        k(   12) = (  -0.0833333   0.7500000   0.0833333), wk =   0.0555556
        k(   13) = (   0.7500000  -0.0833333   0.9166667), wk =   0.1111111
        k(   14) = (   0.5833333   0.0833333   0.7500000), wk =   0.1111111
        k(   15) = (   0.4166667   0.2500000   0.5833333), wk =   0.1111111
        k(   16) = (  -0.0833333  -0.9166667   0.0833333), wk =   0.0555556
        k(   17) = (  -0.2500000  -0.7500000  -0.0833333), wk =   0.1111111
        k(   18) = (  -0.0833333  -0.5833333   0.0833333), wk =   0.0555556
        k(   19) = (  -0.2500000   0.2500000   0.2500000), wk =   0.0185185
        k(   20) = (  -0.4166667   0.4166667   0.0833333), wk =   0.0555556
        k(   21) = (   0.4166667  -0.4166667   0.9166667), wk =   0.0555556
        k(   22) = (   0.2500000  -0.2500000   0.7500000), wk =   0.0555556
        k(   23) = (  -0.2500000   0.5833333   0.2500000), wk =   0.0555556
        k(   24) = (   0.5833333  -0.2500000   1.0833333), wk =   0.1111111
        k(   25) = (   0.4166667  -0.0833333   0.9166667), wk =   0.1111111
        k(   26) = (  -0.2500000  -1.0833333   0.2500000), wk =   0.0555556
        k(   27) = (  -0.4166667   0.4166667   0.4166667), wk =   0.0185185
        k(   28) = (   0.4166667  -0.4166667   1.2500000), wk =   0.0555556

     Dense  grid:      609 G-vectors     FFT dimensions: (  12,  12,  12)

     Estimated max dynamical RAM per process >       0.35 MB

     Estimated total dynamical RAM >       0.71 MB

     Initial potential from superposition of free atoms

     starting charge    2.99794, renormalised to    3.00000
     Starting wfcs are    4 randomized atomic wfcs +    2 random wfcs

     total cpu time spent up to now is        0.1 secs

     Self-consistent Calculation

     iteration #  1     ecut=    12.00 Ry     beta= 0.70
     Davidson diagonalization with overlap
     ethr =  1.00E-02,  avg # of iterations =  5.1

     Threshold (ethr) on eigenvalues was too large:
     Diagonalizing with lowered threshold

     Davidson diagonalization with overlap
     ethr =  2.06E-04,  avg # of iterations =  2.0

     total cpu time spent up to now is        0.2 secs

     total energy              =      -4.18283146 Ry
     estimated scf accuracy    <       0.00617174 Ry

     iteration #  2     ecut=    12.00 Ry     beta= 0.70
     Davidson diagonalization with overlap
     ethr =  2.06E-04,  avg # of iterations =  1.0

     total cpu time spent up to now is        0.2 secs

     total energy              =      -4.18282394 Ry
     estimated scf accuracy    <       0.00048147 Ry

     iteration #  3     ecut=    12.00 Ry     beta= 0.70
     Davidson diagonalization with overlap
     ethr =  1.60E-05,  avg # of iterations =  1.6

     total cpu time spent up to now is        0.2 secs

     End of self-consistent calculation

          k =-0.0833 0.0833 0.0833 (    65 PWs)   bands (ev):

    -2.9625  18.4944  20.6069  20.6069  23.3400  23.5035

          k =-0.2500 0.2500-0.0833 (    67 PWs)   bands (ev):

    -1.9142  14.0414  17.0596  21.5245  22.8702  24.0762

          k =-0.4167 0.4167-0.2500 (    74 PWs)   bands (ev):

     0.6538   8.0368  16.5831  19.8831  21.2492  21.6882

          k = 0.4167-0.4167 0.5833 (    74 PWs)   bands (ev):

     3.1580   4.6646  17.4837  18.1350  19.8510  22.1330

          k = 0.2500-0.2500 0.4167 (    71 PWs)   bands (ev):

    -0.3646   9.9348  17.6826  19.2937  19.7617  24.3093

          k = 0.0833-0.0833 0.2500 (    66 PWs)   bands (ev):

    -2.4368  16.2856  18.5199  19.8446  22.4255  23.5005

          k =-0.0833 0.4167 0.0833 (    72 PWs)   bands (ev):

    -1.3993  14.4331  16.7959  18.1071  18.9834  21.2870

          k =-0.2500 0.5833-0.0833 (    75 PWs)   bands (ev):

     0.6519  10.7546  13.9220  15.3922  19.4754  22.7235

          k = 0.5833-0.2500 0.7500 (    74 PWs)   bands (ev):

     4.1329   5.6356  12.9456  14.4542  20.1885  24.1022

          k = 0.4167-0.0833 0.5833 (    74 PWs)   bands (ev):

     1.6642   8.8755  12.1759  16.2313  21.9924  23.1183

          k = 0.2500 0.0833 0.4167 (    72 PWs)   bands (ev):

    -0.8810  12.1723  15.3270  19.3597  20.7457  23.7161

          k =-0.0833 0.7500 0.0833 (    77 PWs)   bands (ev):

     2.1595  11.0366  12.1258  14.6528  15.7808  19.3133

          k = 0.7500-0.0833 0.9167 (    76 PWs)   bands (ev):

     5.0466   8.2359   9.4086  12.6739  18.1076  21.5839

          k = 0.5833 0.0833 0.7500 (    75 PWs)   bands (ev):

     5.1040   6.5118   9.7988  13.9613  19.7700  26.1777

          k = 0.4167 0.2500 0.5833 (    75 PWs)   bands (ev):

     2.1655   6.5935  15.2379  16.6804  20.9320  22.3997

          k =-0.0833-0.9167 0.0833 (    74 PWs)   bands (ev):

     4.5692   7.8007  11.6331  14.2294  15.2953  18.9111

          k =-0.2500-0.7500-0.0833 (    77 PWs)   bands (ev):

     2.6570   9.7880  11.5284  13.1799  18.5687  21.9670

          k =-0.0833-0.5833 0.0833 (    76 PWs)   bands (ev):

     0.1408  13.0171  14.8194  15.5073  16.7546  20.1328

          k =-0.2500 0.2500 0.2500 (    68 PWs)   bands (ev):

    -1.3944  11.8141  19.4225  19.4225  23.0020  23.3874

          k =-0.4167 0.4167 0.0833 (    73 PWs)   bands (ev):

     0.1444  10.2969  13.5725  19.4441  21.5254  23.4649

          k = 0.4167-0.4167 0.9167 (    75 PWs)   bands (ev):

     3.1594   7.4524  10.7725  16.8225  18.7940  26.1993

          k = 0.2500-0.2500 0.7500 (    74 PWs)   bands (ev):

     3.1573   7.5383  12.0571  15.5173  17.2644  24.7360

          k =-0.2500 0.5833 0.2500 (    75 PWs)   bands (ev):

     1.1594   8.5012  15.7352  16.3797  18.1775  25.3735

          k = 0.5833-0.2500 1.0833 (    76 PWs)   bands (ev):

     3.6484   7.9211  11.1433  12.6892  22.2004  23.6919

          k = 0.4167-0.0833 0.9167 (    75 PWs)   bands (ev):

     5.9928   7.4310   9.2244  10.9579  21.7940  24.6765

          k =-0.2500-1.0833 0.2500 (    74 PWs)   bands (ev):

     5.5168   7.0349   8.8684  15.0901  16.7818  24.3819

          k =-0.4167 0.4167 0.4167 (    73 PWs)   bands (ev):

     1.6663   6.1215  19.4559  19.4559  20.7884  20.7884

          k = 0.4167-0.4167 1.2500 (    79 PWs)   bands (ev):

     3.6458   5.1425  13.9160  17.2563  19.1886  23.9279

     the Fermi energy is     8.2893 ev

!    total energy              =      -4.18282664 Ry
     estimated scf accuracy    <       0.00000032 Ry
     smearing contrib. (-TS)   =      -0.00074612 Ry
     internal energy E=F+TS    =      -4.18208053 Ry

     The total energy is F=E-TS. E is the sum of the following terms:
     one-electron contribution =       2.94435141 Ry
     hartree contribution      =       0.01008473 Ry
     xc contribution           =      -1.63468214 Ry
     ewald contribution        =      -5.50183452 Ry

     convergence has been achieved in   3 iterations

     Writing output data file /tmp/QE/al.save/

     init_run     :      0.02s CPU      0.03s WALL (       1 calls)
     electrons    :      0.22s CPU      0.18s WALL (       1 calls)

     Called by init_run:
     wfcinit      :      0.01s CPU      0.02s WALL (       1 calls)
     potinit      :      0.00s CPU      0.00s WALL (       1 calls)
     hinit0       :      0.00s CPU      0.01s WALL (       1 calls)

     Called by electrons:
     c_bands      :      0.19s CPU      0.16s WALL (       4 calls)
     sum_band     :      0.02s CPU      0.02s WALL (       4 calls)
     v_of_rho     :      0.00s CPU      0.00s WALL (       4 calls)
     mix_rho      :      0.00s CPU      0.00s WALL (       4 calls)

     Called by c_bands:
     init_us_2    :      0.00s CPU      0.00s WALL (     252 calls)
     cegterg      :      0.19s CPU      0.16s WALL (     112 calls)

     Called by *egterg:
     cdiaghg      :      0.05s CPU      0.04s WALL (     357 calls)
     h_psi        :      0.13s CPU      0.11s WALL (     413 calls)
     g_psi        :      0.00s CPU      0.00s WALL (     273 calls)

     Called by h_psi:
     h_psi:calbec :      0.01s CPU      0.01s WALL (     413 calls)
     vloc_psi     :      0.11s CPU      0.10s WALL (     413 calls)
     add_vuspsi   :      0.00s CPU      0.00s WALL (     413 calls)

     General routines
     calbec       :      0.00s CPU      0.00s WALL (     413 calls)
     fft          :      0.00s CPU      0.00s WALL (      12 calls)
     ffts         :      0.00s CPU      0.00s WALL (       4 calls)
     fftw         :      0.10s CPU      0.09s WALL (    4570 calls)

     Parallel routines
     fft_scatt_xy :      0.02s CPU      0.02s WALL (    4586 calls)
     fft_scatt_yz :      0.03s CPU      0.03s WALL (    4586 calls)

     PWSCF        :      0.28s CPU      0.26s WALL


   This run was terminated on:  14:26:20  17Apr2021            

=------------------------------------------------------------------------------=
   JOB DONE.
=------------------------------------------------------------------------------=
