
     Program PWSCF v.6.7GPU starts on 18Apr2021 at 22: 1:19 

     This program is part of the open-source Quantum ESPRESSO suite
     for quantum simulation of materials; please cite
         "P. Giannozzi et al., J. Phys.:Condens. Matter 21 395502 (2009);
         "P. Giannozzi et al., J. Phys.:Condens. Matter 29 465901 (2017);
         "P. Giannozzi et al., J. Chem. Phys. 152 154105 (2020);
          URL http://www.quantum-espresso.org", 
     in publications or presentations arising from this work. More details at
     http://www.quantum-espresso.org/quote

     Parallel version (MPI & OpenMP), running on       2 processor cores
     Number of MPI processes:                 2
     Threads/MPI process:                     1

     MPI processes distributed on     1 nodes
     K-points division:     npool     =       2
     Waiting for input...
     Reading input from standard input

     Current dimensions of program PWSCF are:
     Max number of different atomic species (ntypx) = 10
     Max number of k-points (npk) =  40000
     Max angular momentum in pseudopotentials (lmaxx) =  3

     Subspace diagonalization in iterative solution of the eigenvalue problem:
     a serial algorithm will be used


     G-vector sticks info
     --------------------
     sticks:   dense  smooth     PW     G-vecs:    dense   smooth      PW
     Sum        1347     449    137                31173     5895    1055

     Using Slab Decomposition



     bravais-lattice index     =            3
     lattice parameter (alat)  =       5.3000  a.u.
     unit-cell volume          =      74.4385 (a.u.)^3
     number of atoms/cell      =            1
     number of atomic types    =            1
     number of electrons       =        16.00
     number of Kohn-Sham states=           12
     kinetic-energy cutoff     =      70.0000  Ry
     charge density cutoff     =     850.0000  Ry
     scf convergence threshold =      1.0E-08
     mixing beta               =       0.7000
     number of iterations used =            8  plain     mixing
     Exchange-correlation= LDA
                           (   1   1   0   0   0   0   0)

     celldm(1)=   5.300000  celldm(2)=   0.000000  celldm(3)=   0.000000
     celldm(4)=   0.000000  celldm(5)=   0.000000  celldm(6)=   0.000000

     crystal axes: (cart. coord. in units of alat)
               a(1) = (   0.500000   0.500000   0.500000 )  
               a(2) = (  -0.500000   0.500000   0.500000 )  
               a(3) = (  -0.500000  -0.500000   0.500000 )  

     reciprocal axes: (cart. coord. in units 2 pi/alat)
               b(1) = (  1.000000  0.000000  1.000000 )  
               b(2) = ( -1.000000  1.000000  0.000000 )  
               b(3) = (  0.000000 -1.000000  1.000000 )  


     PseudoPot. # 1 for Fe read from file:
     /home/pietro/repositories/materials-for-max-qe2021-online-school/pseudo/Fe.pz-spn-rrkjus_psl.0.2.1.UPF
     MD5 check sum: 3cbc4c6ff80f64c0ae98e6ac432cb3b7
     Pseudo is Ultrasoft + core correction, Zval = 16.0
     Generated using "atomic" code by A. Dal Corso  v.5.0.2 svn rev. 9415
     Using radial grid of 1191 points,  6 beta functions with: 
                l(1) =   0
                l(2) =   0
                l(3) =   1
                l(4) =   1
                l(5) =   2
                l(6) =   2
     Q(r) pseudized with 0 coefficients 


     atomic species   valence    mass     pseudopotential
        Fe            16.00    55.84500     Fe( 1.00)

     Starting magnetic structure 
     atomic species   magnetization
        Fe           0.700

     48 Sym. Ops., with inversion, found



   Cartesian axes

     site n.     atom                  positions (alat units)
         1           Fe  tau(   1) = (   0.0000000   0.0000000   0.0000000  )

     number of k points=    44  Marzari-Vanderbilt smearing, width (Ry)=  0.0200
                       cart. coord. in units 2pi/alat
        k(    1) = (   0.0000000   0.0000000   0.1000000), wk =   0.0060000
        k(    2) = (   0.0000000  -0.1000000   0.2000000), wk =   0.0240000
        k(    3) = (   0.0000000  -0.2000000   0.3000000), wk =   0.0240000
        k(    4) = (   0.0000000  -0.3000000   0.4000000), wk =   0.0240000
        k(    5) = (   0.0000000  -0.4000000   0.5000000), wk =   0.0240000
        k(    6) = (  -0.1000000   0.1000000   0.1000000), wk =   0.0080000
        k(    7) = (  -0.1000000  -0.1000000   0.3000000), wk =   0.0240000
        k(    8) = (  -0.1000000  -0.2000000   0.4000000), wk =   0.0480000
        k(    9) = (  -0.1000000  -0.3000000   0.5000000), wk =   0.0480000
        k(   10) = (  -0.1000000   0.6000000  -0.4000000), wk =   0.0240000
        k(   11) = (  -0.2000000   0.2000000   0.1000000), wk =   0.0240000
        k(   12) = (  -0.2000000  -0.2000000   0.5000000), wk =   0.0240000
        k(   13) = (  -0.2000000   0.7000000  -0.4000000), wk =   0.0480000
        k(   14) = (  -0.3000000   0.3000000   0.1000000), wk =   0.0240000
        k(   15) = (  -0.3000000   0.2000000   0.2000000), wk =   0.0240000
        k(   16) = (  -0.3000000   0.7000000  -0.3000000), wk =   0.0080000
        k(   17) = (  -0.4000000   0.4000000   0.1000000), wk =   0.0240000
        k(   18) = (  -0.4000000   0.3000000   0.2000000), wk =   0.0480000
        k(   19) = (   0.5000000  -0.5000000   0.1000000), wk =   0.0120000
        k(   20) = (   0.5000000  -0.6000000   0.2000000), wk =   0.0480000
        k(   21) = (   0.5000000  -0.7000000   0.3000000), wk =   0.0240000
        k(   22) = (   0.4000000  -0.6000000   0.3000000), wk =   0.0240000
        k(   23) = (   0.0000000   0.0000000   0.3000000), wk =   0.0060000
        k(   24) = (   0.0000000  -0.1000000   0.4000000), wk =   0.0240000
        k(   25) = (   0.0000000  -0.2000000   0.5000000), wk =   0.0240000
        k(   26) = (   0.0000000  -0.3000000   0.6000000), wk =   0.0240000
        k(   27) = (  -0.1000000  -0.1000000   0.5000000), wk =   0.0240000
        k(   28) = (  -0.1000000  -0.2000000   0.6000000), wk =   0.0480000
        k(   29) = (  -0.1000000   0.7000000  -0.3000000), wk =   0.0240000
        k(   30) = (  -0.2000000   0.8000000  -0.3000000), wk =   0.0240000
        k(   31) = (  -0.3000000   0.3000000   0.3000000), wk =   0.0080000
        k(   32) = (   0.6000000  -0.6000000   0.3000000), wk =   0.0240000
        k(   33) = (   0.5000000  -0.5000000   0.3000000), wk =   0.0120000
        k(   34) = (   0.5000000  -0.6000000   0.4000000), wk =   0.0240000
        k(   35) = (   0.0000000   0.0000000   0.5000000), wk =   0.0060000
        k(   36) = (   0.0000000  -0.1000000   0.6000000), wk =   0.0240000
        k(   37) = (   0.0000000  -0.2000000   0.7000000), wk =   0.0240000
        k(   38) = (  -0.1000000  -0.1000000   0.7000000), wk =   0.0240000
        k(   39) = (  -0.1000000   0.8000000  -0.2000000), wk =   0.0240000
        k(   40) = (   0.5000000  -0.5000000   0.5000000), wk =   0.0020000
        k(   41) = (   0.0000000   0.0000000   0.7000000), wk =   0.0060000
        k(   42) = (   0.0000000  -0.1000000   0.8000000), wk =   0.0240000
        k(   43) = (  -0.1000000   0.9000000  -0.1000000), wk =   0.0080000
        k(   44) = (   0.0000000   0.0000000   0.9000000), wk =   0.0060000

     Dense  grid:    31173 G-vectors     FFT dimensions: (  45,  45,  45)

     Smooth grid:     5895 G-vectors     FFT dimensions: (  25,  25,  25)

     Estimated max dynamical RAM per process >      85.81 MB

     Estimated total dynamical RAM >     156.39 MB

     Check: negative core charge=   -0.000010
     Generating pointlists ...
     new r_m :   0.3572 (alat units)  1.8933 (a.u.) for type    1

     Initial potential from superposition of free atoms

     starting charge   15.99965, renormalised to   16.00000
     Starting wfcs are   13 randomized atomic wfcs

     total cpu time spent up to now is        0.8 secs

     Self-consistent Calculation

     iteration #  1     ecut=    70.00 Ry     beta= 0.70
     Davidson diagonalization with overlap
     ethr =  1.00E-02,  avg # of iterations =  3.1

     negative rho (up, down):  0.000E+00 5.871E-05

     total cpu time spent up to now is        1.6 secs

     total energy              =    -253.95036941 Ry
     estimated scf accuracy    <       1.53930921 Ry

     total magnetization       =     3.74 Bohr mag/cell
     absolute magnetization    =     3.78 Bohr mag/cell

     iteration #  2     ecut=    70.00 Ry     beta= 0.70
     Davidson diagonalization with overlap
     ethr =  9.62E-03,  avg # of iterations =  1.2

     negative rho (up, down):  0.000E+00 6.347E-05

     total cpu time spent up to now is        2.3 secs

     total energy              =    -254.12756065 Ry
     estimated scf accuracy    <       0.35204664 Ry

     total magnetization       =     3.00 Bohr mag/cell
     absolute magnetization    =     3.07 Bohr mag/cell

     iteration #  3     ecut=    70.00 Ry     beta= 0.70
     Davidson diagonalization with overlap
     ethr =  2.20E-03,  avg # of iterations =  2.0

     negative rho (up, down):  0.000E+00 6.347E-05

     total cpu time spent up to now is        3.1 secs

     total energy              =    -254.15889370 Ry
     estimated scf accuracy    <       0.49727487 Ry

     total magnetization       =     2.33 Bohr mag/cell
     absolute magnetization    =     2.41 Bohr mag/cell

     iteration #  4     ecut=    70.00 Ry     beta= 0.70
     Davidson diagonalization with overlap
     ethr =  2.20E-03,  avg # of iterations =  2.0

     negative rho (up, down):  0.000E+00 4.211E-05

     total cpu time spent up to now is        3.8 secs

     total energy              =    -254.23327478 Ry
     estimated scf accuracy    <       0.00249015 Ry

     total magnetization       =     2.21 Bohr mag/cell
     absolute magnetization    =     2.28 Bohr mag/cell

     iteration #  5     ecut=    70.00 Ry     beta= 0.70
     Davidson diagonalization with overlap
     ethr =  1.56E-05,  avg # of iterations =  5.2

     negative rho (up, down):  0.000E+00 3.607E-05

     total cpu time spent up to now is        4.9 secs

     total energy              =    -254.23565334 Ry
     estimated scf accuracy    <       0.00076588 Ry

     total magnetization       =     2.13 Bohr mag/cell
     absolute magnetization    =     2.19 Bohr mag/cell

     iteration #  6     ecut=    70.00 Ry     beta= 0.70
     Davidson diagonalization with overlap
     ethr =  4.79E-06,  avg # of iterations =  2.0

     negative rho (up, down):  0.000E+00 3.095E-05

     total cpu time spent up to now is        5.6 secs

     total energy              =    -254.23586681 Ry
     estimated scf accuracy    <       0.00014223 Ry

     total magnetization       =     2.10 Bohr mag/cell
     absolute magnetization    =     2.15 Bohr mag/cell

     iteration #  7     ecut=    70.00 Ry     beta= 0.70
     Davidson diagonalization with overlap
     ethr =  8.89E-07,  avg # of iterations =  1.9

     negative rho (up, down):  0.000E+00 3.182E-05

     total cpu time spent up to now is        6.5 secs

     total energy              =    -254.23591962 Ry
     estimated scf accuracy    <       0.00000280 Ry

     total magnetization       =     2.08 Bohr mag/cell
     absolute magnetization    =     2.12 Bohr mag/cell

     iteration #  8     ecut=    70.00 Ry     beta= 0.70
     Davidson diagonalization with overlap
     ethr =  1.75E-08,  avg # of iterations =  4.4

     negative rho (up, down):  0.000E+00 3.165E-05

     total cpu time spent up to now is        7.6 secs

     total energy              =    -254.23592124 Ry
     estimated scf accuracy    <       0.00000354 Ry

     total magnetization       =     2.08 Bohr mag/cell
     absolute magnetization    =     2.13 Bohr mag/cell

     iteration #  9     ecut=    70.00 Ry     beta= 0.70
     Davidson diagonalization with overlap
     ethr =  1.75E-08,  avg # of iterations =  2.0

     negative rho (up, down):  0.000E+00 3.156E-05

     total cpu time spent up to now is        8.6 secs

     total energy              =    -254.23592201 Ry
     estimated scf accuracy    <       0.00000007 Ry

     total magnetization       =     2.08 Bohr mag/cell
     absolute magnetization    =     2.13 Bohr mag/cell

     iteration # 10     ecut=    70.00 Ry     beta= 0.70
     Davidson diagonalization with overlap
     ethr =  4.40E-10,  avg # of iterations =  2.8

     negative rho (up, down):  0.000E+00 3.156E-05

     Magnetic moment per site  (integrated on atomic sphere of radius R)
     atom   1 (R=0.357)  charge= 14.3806  magn=  2.0808

     total cpu time spent up to now is        9.5 secs

     End of self-consistent calculation

 ------ SPIN UP ------------


          k = 0.0000 0.0000 0.1000 (   715 PWs)   bands (ev):

   -68.7321 -34.9004 -34.8920 -34.8920   9.9903  16.2397  16.2397  16.3022
    17.5616  17.7028  42.4376  43.4625

          k = 0.0000-0.1000 0.2000 (   723 PWs)   bands (ev):

   -68.7153 -34.9846 -34.9212 -34.8947  10.8036  16.0388  16.1983  16.7396
    17.3395  17.7699  39.2280  41.9051

          k = 0.0000-0.2000 0.3000 (   729 PWs)   bands (ev):

   -68.6879 -35.1231 -34.9682 -34.8943  12.1842  15.6963  16.0728  17.3278
    17.5354  17.8491  34.6624  39.7370

          k = 0.0000-0.3000 0.4000 (   739 PWs)   bands (ev):

   -68.6605 -35.2604 -35.0148 -34.8939  13.2915  15.3679  16.5183  17.5742
    18.0617  18.4226  30.1783  38.0070

          k = 0.0000-0.4000 0.5000 (   737 PWs)   bands (ev):

   -68.6435 -35.3436 -35.0434 -34.8937  13.5084  15.1716  17.2727  17.6558
    19.0311  19.1463  26.7615  37.0606

          k =-0.1000 0.1000 0.1000 (   721 PWs)   bands (ev):

   -68.7236 -34.9583 -34.8927 -34.8927  10.4045  16.1023  16.1023  16.6554
    17.6011  17.6011  41.1494  41.1495

          k =-0.1000-0.1000 0.3000 (   728 PWs)   bands (ev):

   -68.6935 -35.0792 -34.9538 -34.9147  11.9001  15.9569  15.9617  17.1236
    17.3361  17.9253  36.8319  38.1493

          k =-0.1000-0.2000 0.4000 (   734 PWs)   bands (ev):

   -68.6664 -35.2002 -35.0076 -34.9203  13.2340  15.5729  15.8971  17.2513
    17.9759  18.4888  32.6656  35.8314

          k =-0.1000-0.3000 0.5000 (   740 PWs)   bands (ev):

   -68.6445 -35.2972 -35.0546 -34.9211  13.8143  15.3595  16.2635  17.5071
    18.3491  19.9251  28.4840  34.5618

          k =-0.1000 0.6000-0.4000 (   740 PWs)   bands (ev):

   -68.6362 -35.3338 -35.0728 -34.9210  13.8324  15.2893  16.5401  17.5440
    18.6602  21.1822  26.2276  34.1001

          k =-0.2000 0.2000 0.1000 (   723 PWs)   bands (ev):

   -68.7012 -35.0719 -34.9314 -34.8934  11.5508  15.7780  15.9359  17.3710
    17.4819  17.6838  36.9877  39.2659

          k =-0.2000-0.2000 0.5000 (   740 PWs)   bands (ev):

   -68.6449 -35.2604 -35.0724 -34.9373  14.1843  15.2052  15.8868  17.3851
    18.1312  20.1963  30.8048  31.6162

          k =-0.2000 0.7000-0.4000 (   739 PWs)   bands (ev):

   -68.6316 -35.2842 -35.1305 -34.9421  14.4404  15.2390  15.7989  17.6236
    18.2761  22.5325  27.2652  30.4288

          k =-0.3000 0.3000 0.1000 (   741 PWs)   bands (ev):

   -68.6734 -35.2041 -34.9867 -34.8950  12.9567  15.4205  15.9823  17.5435
    17.7723  18.3611  32.3937  37.5305

          k =-0.3000 0.2000 0.2000 (   727 PWs)   bands (ev):

   -68.6783 -35.1761 -34.9606 -34.9156  12.8488  15.5292  15.5585  17.5022
    17.7804  18.4165  34.6770  35.6028

          k =-0.3000 0.7000-0.3000 (   733 PWs)   bands (ev):

   -68.6267 -35.2204 -35.2204 -34.9476  14.9337  15.2551  15.2551  17.9858
    17.9858  25.5377  25.5377  28.1906

          k =-0.4000 0.4000 0.1000 (   737 PWs)   bands (ev):

   -68.6509 -35.3073 -35.0322 -34.8957  13.5618  15.1537  17.0386  17.6884
    17.8456  19.5049  28.2762  36.3198

          k =-0.4000 0.3000 0.2000 (   740 PWs)   bands (ev):

   -68.6555 -35.2599 -35.0232 -34.9250  13.9293  15.2206  15.7671  17.6058
    17.8904  19.8366  30.6057  33.7373

          k = 0.5000-0.5000 0.1000 (   744 PWs)   bands (ev):

   -68.6423 -35.3464 -35.0500 -34.8967  13.5932  15.0558  17.7162  17.8530
    17.8754  20.3826  26.1774  35.8850

          k = 0.5000-0.6000 0.2000 (   737 PWs)   bands (ev):

   -68.6413 -35.3029 -35.0714 -34.9284  14.0596  15.0742  16.5426  17.7279
    17.9836  21.5973  27.0016  32.8914

          k = 0.5000-0.7000 0.3000 (   740 PWs)   bands (ev):

   -68.6410 -35.2667 -35.0935 -34.9472  14.5276  15.1340  15.7424  17.7172
    17.9728  22.0050  28.9447  29.9799

          k = 0.4000-0.6000 0.3000 (   736 PWs)   bands (ev):

   -68.6354 -35.2472 -35.1445 -34.9531  14.5852  15.1763  15.8224  17.8185
    17.9728  24.1079  26.4124  29.2388

          k = 0.0000 0.0000 0.3000 (   723 PWs)   bands (ev):

   -68.6992 -35.0051 -34.9510 -34.9510  11.5624  16.3003  16.3003  16.7555
    16.8048  17.9975  38.7274  40.5363

          k = 0.0000-0.1000 0.4000 (   732 PWs)   bands (ev):

   -68.6732 -35.1177 -34.9991 -34.9624  12.8164  15.9852  16.1358  16.8066
    17.4406  18.2776  35.2239  38.4025

          k = 0.0000-0.2000 0.5000 (   738 PWs)   bands (ev):

   -68.6472 -35.2431 -35.0468 -34.9594  13.7986  15.6886  15.8673  17.2215
    18.3414  19.1265  30.6962  36.6025

          k = 0.0000-0.3000 0.6000 (   737 PWs)   bands (ev):

   -68.6310 -35.3201 -35.0763 -34.9566  13.9490  15.6997  15.8948  17.3094
    18.9737  20.9946  27.0077  35.5153

          k =-0.1000-0.1000 0.5000 (   731 PWs)   bands (ev):

   -68.6482 -35.1974 -35.0553 -34.9871  13.8489  15.4203  16.2700  16.9540
    18.0016  19.1343  33.2181  33.9121

          k =-0.1000-0.2000 0.6000 (   742 PWs)   bands (ev):

   -68.6279 -35.2722 -35.1089 -34.9889  14.3357  15.1567  16.0622  17.3219
    18.5138  21.1310  29.1454  32.3204

          k =-0.1000 0.7000-0.3000 (   742 PWs)   bands (ev):

   -68.6201 -35.3009 -35.1298 -34.9881  14.2994  15.3282  15.8633  17.4222
    18.7933  23.0696  26.4480  31.8226

          k =-0.2000 0.8000-0.3000 (   745 PWs)   bands (ev):

   -68.6159 -35.2614 -35.1879 -34.9949  14.7753  14.8116  15.7741  17.8539
    18.4141  24.0086  27.5921  28.8941

          k =-0.3000 0.3000 0.3000 (   736 PWs)   bands (ev):

   -68.6597 -35.2439 -34.9696 -34.9696  14.1365  15.2142  15.2142  17.7475
    17.7475  19.8665  33.0074  33.0074

          k = 0.6000-0.6000 0.3000 (   740 PWs)   bands (ev):

   -68.6445 -35.2637 -35.0480 -34.9766  14.6274  15.0386  15.6475  17.8037
    17.8653  21.8141  29.1253  31.9503

          k = 0.5000-0.5000 0.3000 (   740 PWs)   bands (ev):

   -68.6387 -35.2575 -35.0913 -34.9796  14.5414  14.9843  16.1262  17.8414
    17.8974  23.5863  26.5164  31.5868

          k = 0.5000-0.6000 0.4000 (   738 PWs)   bands (ev):

   -68.6377 -35.2123 -35.1104 -35.0154  14.8545  15.1791  15.5563  17.8757
    17.9059  24.4339  27.7650  28.9623

          k = 0.0000 0.0000 0.5000 (   731 PWs)   bands (ev):

   -68.6494 -35.1309 -35.0490 -35.0490  13.7051  15.5859  16.7049  16.7049
    17.5067  18.9483  35.8925  35.8925

          k = 0.0000-0.1000 0.6000 (   739 PWs)   bands (ev):

   -68.6256 -35.2164 -35.0987 -35.0628  14.2557  14.9752  16.7459  17.1167
    18.2290  20.4318  31.6440  33.8910

          k = 0.0000-0.2000 0.7000 (   742 PWs)   bands (ev):

   -68.6108 -35.2820 -35.1293 -35.0577  14.2671  14.8006  16.6565  17.2968
    18.8816  22.9579  27.6353  32.7083

          k =-0.1000-0.1000 0.7000 (   745 PWs)   bands (ev):

   -68.6072 -35.2481 -35.1607 -35.0798  14.3666  14.4894  16.8252  17.6913
    18.5733  22.7720  29.9853  30.4859

          k =-0.1000 0.8000-0.2000 (   736 PWs)   bands (ev):

   -68.6002 -35.2599 -35.1909 -35.0784  14.2645  14.4225  16.7625  17.9879
    18.7433  25.3436  27.0053  29.7398

          k = 0.5000-0.5000 0.5000 (   736 PWs)   bands (ev):

   -68.6365 -35.1167 -35.1167 -35.1167  15.2189  15.2189  15.2189  17.9111
    17.9111  27.3614  27.3614  27.3615

          k = 0.0000 0.0000 0.7000 (   735 PWs)   bands (ev):

   -68.6039 -35.2044 -35.1500 -35.1500  14.1829  14.3980  17.6202  17.6202
    18.2797  22.2895  31.7000  31.7000

          k = 0.0000-0.1000 0.8000 (   730 PWs)   bands (ev):

   -68.5904 -35.2434 -35.1819 -35.1561  14.0034  14.0594  17.8043  18.0104
    18.7916  24.9932  28.6406  30.3801

          k =-0.1000 0.9000-0.1000 (   730 PWs)   bands (ev):

   -68.5840 -35.2270 -35.2270 -35.1633  13.8709  13.8709  17.9137  18.6751
    18.6751  27.6365  27.6365  28.4672

          k = 0.0000 0.0000 0.9000 (   731 PWs)   bands (ev):

   -68.5778 -35.2219 -35.2145 -35.2145  13.6863  13.6870  18.6464  18.6464
    18.7679  27.2024  28.9375  28.9375

 ------ SPIN DOWN ----------


          k = 0.0000 0.0000 0.1000 (   715 PWs)   bands (ev):

   -66.3243 -32.5416 -32.5321 -32.5321  10.3716  17.9589  17.9589  18.0325
    19.7892  19.9607  42.6986  43.6812

          k = 0.0000-0.1000 0.2000 (   723 PWs)   bands (ev):

   -66.3060 -32.6341 -32.5639 -32.5351  11.1959  17.7264  17.8915  18.5036
    19.5071  20.0363  39.7892  42.2751

          k = 0.0000-0.2000 0.3000 (   729 PWs)   bands (ev):

   -66.2764 -32.7863 -32.6149 -32.5348  12.6478  17.3337  17.6610  19.3693
    19.4256  20.1168  35.4636  40.1229

          k = 0.0000-0.3000 0.4000 (   739 PWs)   bands (ev):

   -66.2466 -32.9369 -32.6654 -32.5346  14.1006  16.9604  17.7620  19.6182
    20.2448  20.3475  31.1712  38.3636

          k = 0.0000-0.4000 0.5000 (   737 PWs)   bands (ev):

   -66.2281 -33.0281 -32.6965 -32.5344  14.6708  16.7386  18.6027  19.7474
    20.6202  21.0291  28.0033  37.3886

          k =-0.1000 0.1000 0.1000 (   721 PWs)   bands (ev):

   -66.3150 -32.6051 -32.5329 -32.5329  10.7902  17.8019  17.8019  18.4093
    19.8337  19.8337  41.5770  41.5770

          k =-0.1000-0.1000 0.3000 (   728 PWs)   bands (ev):

   -66.2824 -32.7380 -32.5994 -32.5571  12.3291  17.6021  17.6349  19.1347
    19.2068  20.1947  37.5405  38.7885

          k =-0.1000-0.2000 0.4000 (   734 PWs)   bands (ev):

   -66.2531 -32.8707 -32.6580 -32.5633  13.8459  17.1853  17.4252  19.2740
    20.0433  20.4663  33.5433  36.5151

          k =-0.1000-0.3000 0.5000 (   740 PWs)   bands (ev):

   -66.2293 -32.9770 -32.7092 -32.5641  14.8842  16.9269  17.5947  19.5416
    20.4092  21.5669  29.5527  35.2405

          k =-0.1000 0.6000-0.4000 (   740 PWs)   bands (ev):

   -66.2202 -33.0171 -32.7290 -32.5641  15.0773  16.8492  17.9164  19.6106
    20.6490  22.4854  27.4991  34.7669

          k =-0.2000 0.2000 0.1000 (   723 PWs)   bands (ev):

   -66.2907 -32.7299 -32.5751 -32.5339  11.9635  17.4288  17.5849  19.1687
    19.6584  19.9323  37.6720  39.7858

          k =-0.2000-0.2000 0.5000 (   740 PWs)   bands (ev):

   -66.2297 -32.9364 -32.7293 -32.5815  15.1178  16.7570  17.3483  19.3962
    20.2560  21.8535  31.7835  32.3864

          k =-0.2000 0.7000-0.4000 (   739 PWs)   bands (ev):

   -66.2153 -32.9625 -32.7930 -32.5868  15.7265  16.7361  17.2081  19.6552
    20.3288  23.8564  28.3698  31.2516

          k =-0.3000 0.3000 0.1000 (   741 PWs)   bands (ev):

   -66.2606 -32.8750 -32.6352 -32.5357  13.5395  17.0178  17.4203  19.6831
    20.0449  20.1936  33.2747  38.0398

          k =-0.3000 0.2000 0.2000 (   727 PWs)   bands (ev):

   -66.2659 -32.8442 -32.6072 -32.5581  13.3374  17.1240  17.1358  19.6666
    20.0301  20.2285  35.4538  36.2937

          k =-0.3000 0.7000-0.3000 (   733 PWs)   bands (ev):

   -66.2099 -32.8921 -32.8921 -32.5926  16.3647  16.6760  16.6760  20.0245
    20.0245  26.6821  26.6821  29.0931

          k =-0.4000 0.4000 0.1000 (   737 PWs)   bands (ev):

   -66.2361 -32.9883 -32.6846 -32.5367  14.5963  16.7125  18.0373  19.8107
    20.1428  21.2392  29.3694  36.7885

          k =-0.4000 0.3000 0.2000 (   740 PWs)   bands (ev):

   -66.2411 -32.9361 -32.6755 -32.5685  14.7613  16.7566  17.0978  19.7587
    20.1563  21.5423  31.5324  34.4583

          k = 0.5000-0.5000 0.1000 (   744 PWs)   bands (ev):

   -66.2268 -33.0312 -32.7038 -32.5377  14.7939  16.6009  18.7804  19.8584
    20.1835  21.8394  27.4797  36.3343

          k = 0.5000-0.6000 0.2000 (   737 PWs)   bands (ev):

   -66.2257 -32.9834 -32.7281 -32.5723  15.2669  16.5838  17.7082  19.8854
    20.2251  22.9816  28.1525  33.5988

          k = 0.5000-0.7000 0.3000 (   740 PWs)   bands (ev):

   -66.2253 -32.9434 -32.7529 -32.5926  15.7293  16.5711  17.0123  19.8808
    20.2078  23.4429  29.9494  30.7860

          k = 0.4000-0.6000 0.3000 (   736 PWs)   bands (ev):

   -66.2193 -32.9221 -32.8090 -32.5991  15.9250  16.5900  17.1041  19.9955
    20.1796  25.2827  27.5497  30.0844

          k = 0.0000 0.0000 0.3000 (   723 PWs)   bands (ev):

   -66.2886 -32.6574 -32.5963 -32.5963  11.9740  17.9882  17.9882  18.5262
    18.8718  20.2762  39.2950  41.2147

          k = 0.0000-0.1000 0.4000 (   732 PWs)   bands (ev):

   -66.2605 -32.7806 -32.6486 -32.6092  13.3243  17.7146  17.7966  18.6897
    19.2653  20.4855  36.0299  39.1573

          k = 0.0000-0.2000 0.5000 (   738 PWs)   bands (ev):

   -66.2322 -32.9176 -32.7005 -32.6060  14.6681  17.2473  17.4922  19.1153
    20.2562  20.9849  31.6566  37.3533

          k = 0.0000-0.3000 0.6000 (   737 PWs)   bands (ev):

   -66.2147 -33.0018 -32.7325 -32.6030  15.2020  17.3027  17.3403  19.2687
    20.9651  22.3046  28.1793  36.2245

          k =-0.1000-0.1000 0.5000 (   731 PWs)   bands (ev):

   -66.2333 -32.8676 -32.7101 -32.6359  14.5975  17.1232  17.8965  18.7823
    19.9263  21.0257  34.1359  34.6552

          k =-0.1000-0.2000 0.6000 (   742 PWs)   bands (ev):

   -66.2113 -32.9490 -32.7687 -32.6378  15.5165  16.6969  17.6759  19.1963
    20.4766  22.5809  30.1435  33.1185

          k =-0.1000 0.7000-0.3000 (   742 PWs)   bands (ev):

   -66.2028 -32.9803 -32.7915 -32.6369  15.6891  16.7897  17.4634  19.3160
    20.7691  24.2248  27.6161  32.6051

          k =-0.2000 0.8000-0.3000 (   745 PWs)   bands (ev):

   -66.1983 -32.9367 -32.8556 -32.6440  16.2071  16.3095  17.3289  19.7527
    20.3638  25.1983  28.6573  29.7373

          k =-0.3000 0.3000 0.3000 (   736 PWs)   bands (ev):

   -66.2456 -32.9184 -32.6173 -32.6173  14.7613  16.7340  16.7340  19.9890
    19.9890  21.5873  33.8075  33.8075

          k = 0.6000-0.6000 0.3000 (   740 PWs)   bands (ev):

   -66.2291 -32.9402 -32.7031 -32.6253  15.7572  16.5075  16.8512  20.0374
    20.1596  23.2853  30.0759  32.7523

          k = 0.5000-0.5000 0.3000 (   740 PWs)   bands (ev):

   -66.2228 -32.9336 -32.7504 -32.6287  15.8132  16.4351  17.3160  20.0738
    20.2106  24.7658  27.6633  32.3863

          k = 0.5000-0.6000 0.4000 (   738 PWs)   bands (ev):

   -66.2217 -32.8839 -32.7720 -32.6678  16.2104  16.5349  16.7893  20.1496
    20.2049  25.6259  28.7762  29.8147

          k = 0.0000 0.0000 0.5000 (   731 PWs)   bands (ev):

   -66.2347 -32.7955 -32.7030 -32.7030  14.3965  17.4227  18.3868  18.3868
    19.3484  20.9282  36.6718  36.6719

          k = 0.0000-0.1000 0.6000 (   739 PWs)   bands (ev):

   -66.2088 -32.8879 -32.7572 -32.7186  15.3231  16.6645  18.4334  18.8690
    20.1330  21.9574  32.5244  34.6401

          k = 0.0000-0.2000 0.7000 (   742 PWs)   bands (ev):

   -66.1928 -32.9593 -32.7905 -32.7130  15.6974  16.3097  18.3361  19.0770
    20.8627  24.1002  28.6530  33.4059

          k =-0.1000-0.1000 0.7000 (   745 PWs)   bands (ev):

   -66.1890 -32.9218 -32.8252 -32.7367  15.7218  16.1051  18.5028  19.4897
    20.5124  23.9442  30.8983  31.2423

          k =-0.1000 0.8000-0.2000 (   736 PWs)   bands (ev):

   -66.1814 -32.9345 -32.8584 -32.7352  15.8009  15.9317  18.4103  19.8273
    20.6985  26.3308  27.9786  30.5143

          k = 0.5000-0.5000 0.5000 (   736 PWs)   bands (ev):

   -66.2204 -32.7790 -32.7790 -32.7790  16.5430  16.5430  16.5430  20.2275
    20.2275  28.3731  28.3731  28.3731

          k = 0.0000 0.0000 0.7000 (   735 PWs)   bands (ev):

   -66.1854 -32.8743 -32.8133 -32.8133  15.5193  16.0451  19.3799  19.3799
    20.1996  23.4355  32.3990  32.3990

          k = 0.0000-0.1000 0.8000 (   730 PWs)   bands (ev):

   -66.1709 -32.9162 -32.8480 -32.8202  15.5080  15.6163  19.6069  19.8165
    20.7631  25.8897  29.4090  31.0053

          k =-0.1000 0.9000-0.1000 (   730 PWs)   bands (ev):

   -66.1640 -32.8976 -32.8976 -32.8278  15.4093  15.4093  19.7150  20.6144
    20.6144  28.3780  28.3780  29.1121

          k = 0.0000 0.0000 0.9000 (   731 PWs)   bands (ev):

   -66.1573 -32.8921 -32.8836 -32.8836  15.2122  15.2348  20.5798  20.5798
    20.7401  27.8341  29.4539  29.4539

     the Fermi energy is    18.5933 ev

!    total energy              =    -254.23592204 Ry
     estimated scf accuracy    <          1.5E-10 Ry
     smearing contrib. (-TS)   =       0.00008610 Ry
     internal energy E=F+TS    =    -254.23600814 Ry

     The total energy is F=E-TS. E is the sum of the following terms:
     one-electron contribution =    -108.27164962 Ry
     hartree contribution      =      64.27070068 Ry
     xc contribution           =     -34.45321712 Ry
     ewald contribution        =    -175.78184209 Ry

     total magnetization       =     2.08 Bohr mag/cell
     absolute magnetization    =     2.13 Bohr mag/cell

     convergence has been achieved in  10 iterations

     Writing output data file ./tempdir/fe.save/

     init_run     :      0.69s CPU      0.72s WALL (       1 calls)
     electrons    :      8.36s CPU      8.68s WALL (       1 calls)

     Called by init_run:
     wfcinit      :      0.22s CPU      0.22s WALL (       1 calls)
     potinit      :      0.02s CPU      0.03s WALL (       1 calls)
     hinit0       :      0.39s CPU      0.39s WALL (       1 calls)

     Called by electrons:
     c_bands      :      5.29s CPU      5.34s WALL (      10 calls)
     sum_band     :      2.13s CPU      2.29s WALL (      10 calls)
     v_of_rho     :      0.18s CPU      0.19s WALL (      11 calls)
     newd         :      0.67s CPU      0.79s WALL (      11 calls)
     mix_rho      :      0.07s CPU      0.07s WALL (      10 calls)

     Called by c_bands:
     init_us_2    :      0.13s CPU      0.13s WALL (     924 calls)
     cegterg      :      4.63s CPU      4.67s WALL (     440 calls)

     Called by *egterg:
     cdiaghg      :      0.17s CPU      0.17s WALL (    1564 calls)
     h_psi        :      4.25s CPU      4.30s WALL (    1608 calls)
     s_psi        :      0.05s CPU      0.06s WALL (    1608 calls)
     g_psi        :      0.02s CPU      0.02s WALL (    1124 calls)

     Called by h_psi:
     h_psi:calbec :      0.08s CPU      0.08s WALL (    1608 calls)
     vloc_psi     :      4.10s CPU      4.14s WALL (    1608 calls)
     add_vuspsi   :      0.06s CPU      0.06s WALL (    1608 calls)

     General routines
     calbec       :      0.10s CPU      0.10s WALL (    2048 calls)
     fft          :      0.17s CPU      0.17s WALL (     115 calls)
     ffts         :      0.01s CPU      0.01s WALL (      42 calls)
     fftw         :      4.52s CPU      4.56s WALL (   32416 calls)
     interpolate  :      0.05s CPU      0.05s WALL (      22 calls)

     Parallel routines

     PWSCF        :      9.11s CPU      9.48s WALL


   This run was terminated on:  22: 1:28  18Apr2021            

=------------------------------------------------------------------------------=
   JOB DONE.
=------------------------------------------------------------------------------=
