
     Program PWSCF v.6.7GPU starts on 18Apr2021 at 22: 0:48 

     This program is part of the open-source Quantum ESPRESSO suite
     for quantum simulation of materials; please cite
         "P. Giannozzi et al., J. Phys.:Condens. Matter 21 395502 (2009);
         "P. Giannozzi et al., J. Phys.:Condens. Matter 29 465901 (2017);
         "P. Giannozzi et al., J. Chem. Phys. 152 154105 (2020);
          URL http://www.quantum-espresso.org", 
     in publications or presentations arising from this work. More details at
     http://www.quantum-espresso.org/quote

     Parallel version (MPI & OpenMP), running on       2 processor cores
     Number of MPI processes:                 2
     Threads/MPI process:                     1

     MPI processes distributed on     1 nodes
     K-points division:     npool     =       2
     Waiting for input...
     Reading input from standard input

     Current dimensions of program PWSCF are:
     Max number of different atomic species (ntypx) = 10
     Max number of k-points (npk) =  40000
     Max angular momentum in pseudopotentials (lmaxx) =  3

     Subspace diagonalization in iterative solution of the eigenvalue problem:
     a serial algorithm will be used


     G-vector sticks info
     --------------------
     sticks:   dense  smooth     PW     G-vecs:    dense   smooth      PW
     Sum        1151     383    129                24643     4729     887

     Using Slab Decomposition



     bravais-lattice index     =            3
     lattice parameter (alat)  =       4.9000  a.u.
     unit-cell volume          =      58.8245 (a.u.)^3
     number of atoms/cell      =            1
     number of atomic types    =            1
     number of electrons       =        16.00
     number of Kohn-Sham states=           12
     kinetic-energy cutoff     =      70.0000  Ry
     charge density cutoff     =     850.0000  Ry
     scf convergence threshold =      1.0E-08
     mixing beta               =       0.7000
     number of iterations used =            8  plain     mixing
     Exchange-correlation= LDA
                           (   1   1   0   0   0   0   0)

     celldm(1)=   4.900000  celldm(2)=   0.000000  celldm(3)=   0.000000
     celldm(4)=   0.000000  celldm(5)=   0.000000  celldm(6)=   0.000000

     crystal axes: (cart. coord. in units of alat)
               a(1) = (   0.500000   0.500000   0.500000 )  
               a(2) = (  -0.500000   0.500000   0.500000 )  
               a(3) = (  -0.500000  -0.500000   0.500000 )  

     reciprocal axes: (cart. coord. in units 2 pi/alat)
               b(1) = (  1.000000  0.000000  1.000000 )  
               b(2) = ( -1.000000  1.000000  0.000000 )  
               b(3) = (  0.000000 -1.000000  1.000000 )  


     PseudoPot. # 1 for Fe read from file:
     /home/pietro/repositories/materials-for-max-qe2021-online-school/pseudo/Fe.pz-spn-rrkjus_psl.0.2.1.UPF
     MD5 check sum: 3cbc4c6ff80f64c0ae98e6ac432cb3b7
     Pseudo is Ultrasoft + core correction, Zval = 16.0
     Generated using "atomic" code by A. Dal Corso  v.5.0.2 svn rev. 9415
     Using radial grid of 1191 points,  6 beta functions with: 
                l(1) =   0
                l(2) =   0
                l(3) =   1
                l(4) =   1
                l(5) =   2
                l(6) =   2
     Q(r) pseudized with 0 coefficients 


     atomic species   valence    mass     pseudopotential
        Fe            16.00    55.84500     Fe( 1.00)

     Starting magnetic structure 
     atomic species   magnetization
        Fe           0.700

     48 Sym. Ops., with inversion, found



   Cartesian axes

     site n.     atom                  positions (alat units)
         1           Fe  tau(   1) = (   0.0000000   0.0000000   0.0000000  )

     number of k points=    44  Marzari-Vanderbilt smearing, width (Ry)=  0.0200
                       cart. coord. in units 2pi/alat
        k(    1) = (   0.0000000   0.0000000   0.1000000), wk =   0.0060000
        k(    2) = (   0.0000000  -0.1000000   0.2000000), wk =   0.0240000
        k(    3) = (   0.0000000  -0.2000000   0.3000000), wk =   0.0240000
        k(    4) = (   0.0000000  -0.3000000   0.4000000), wk =   0.0240000
        k(    5) = (   0.0000000  -0.4000000   0.5000000), wk =   0.0240000
        k(    6) = (  -0.1000000   0.1000000   0.1000000), wk =   0.0080000
        k(    7) = (  -0.1000000  -0.1000000   0.3000000), wk =   0.0240000
        k(    8) = (  -0.1000000  -0.2000000   0.4000000), wk =   0.0480000
        k(    9) = (  -0.1000000  -0.3000000   0.5000000), wk =   0.0480000
        k(   10) = (  -0.1000000   0.6000000  -0.4000000), wk =   0.0240000
        k(   11) = (  -0.2000000   0.2000000   0.1000000), wk =   0.0240000
        k(   12) = (  -0.2000000  -0.2000000   0.5000000), wk =   0.0240000
        k(   13) = (  -0.2000000   0.7000000  -0.4000000), wk =   0.0480000
        k(   14) = (  -0.3000000   0.3000000   0.1000000), wk =   0.0240000
        k(   15) = (  -0.3000000   0.2000000   0.2000000), wk =   0.0240000
        k(   16) = (  -0.3000000   0.7000000  -0.3000000), wk =   0.0080000
        k(   17) = (  -0.4000000   0.4000000   0.1000000), wk =   0.0240000
        k(   18) = (  -0.4000000   0.3000000   0.2000000), wk =   0.0480000
        k(   19) = (   0.5000000  -0.5000000   0.1000000), wk =   0.0120000
        k(   20) = (   0.5000000  -0.6000000   0.2000000), wk =   0.0480000
        k(   21) = (   0.5000000  -0.7000000   0.3000000), wk =   0.0240000
        k(   22) = (   0.4000000  -0.6000000   0.3000000), wk =   0.0240000
        k(   23) = (   0.0000000   0.0000000   0.3000000), wk =   0.0060000
        k(   24) = (   0.0000000  -0.1000000   0.4000000), wk =   0.0240000
        k(   25) = (   0.0000000  -0.2000000   0.5000000), wk =   0.0240000
        k(   26) = (   0.0000000  -0.3000000   0.6000000), wk =   0.0240000
        k(   27) = (  -0.1000000  -0.1000000   0.5000000), wk =   0.0240000
        k(   28) = (  -0.1000000  -0.2000000   0.6000000), wk =   0.0480000
        k(   29) = (  -0.1000000   0.7000000  -0.3000000), wk =   0.0240000
        k(   30) = (  -0.2000000   0.8000000  -0.3000000), wk =   0.0240000
        k(   31) = (  -0.3000000   0.3000000   0.3000000), wk =   0.0080000
        k(   32) = (   0.6000000  -0.6000000   0.3000000), wk =   0.0240000
        k(   33) = (   0.5000000  -0.5000000   0.3000000), wk =   0.0120000
        k(   34) = (   0.5000000  -0.6000000   0.4000000), wk =   0.0240000
        k(   35) = (   0.0000000   0.0000000   0.5000000), wk =   0.0060000
        k(   36) = (   0.0000000  -0.1000000   0.6000000), wk =   0.0240000
        k(   37) = (   0.0000000  -0.2000000   0.7000000), wk =   0.0240000
        k(   38) = (  -0.1000000  -0.1000000   0.7000000), wk =   0.0240000
        k(   39) = (  -0.1000000   0.8000000  -0.2000000), wk =   0.0240000
        k(   40) = (   0.5000000  -0.5000000   0.5000000), wk =   0.0020000
        k(   41) = (   0.0000000   0.0000000   0.7000000), wk =   0.0060000
        k(   42) = (   0.0000000  -0.1000000   0.8000000), wk =   0.0240000
        k(   43) = (  -0.1000000   0.9000000  -0.1000000), wk =   0.0080000
        k(   44) = (   0.0000000   0.0000000   0.9000000), wk =   0.0060000

     Dense  grid:    24643 G-vectors     FFT dimensions: (  40,  40,  40)

     Smooth grid:     4729 G-vectors     FFT dimensions: (  24,  24,  24)

     Estimated max dynamical RAM per process >      67.47 MB

     Estimated total dynamical RAM >     122.90 MB

     Check: negative core charge=   -0.000012
     Generating pointlists ...
     new r_m :   0.3572 (alat units)  1.7505 (a.u.) for type    1

     Initial potential from superposition of free atoms

     starting charge   15.99965, renormalised to   16.00000
     Starting wfcs are   13 randomized atomic wfcs

     total cpu time spent up to now is        0.7 secs

     Self-consistent Calculation

     iteration #  1     ecut=    70.00 Ry     beta= 0.70
     Davidson diagonalization with overlap
     ethr =  1.00E-02,  avg # of iterations =  3.9

     negative rho (up, down):  0.000E+00 4.953E-05

     total cpu time spent up to now is        1.3 secs

     total energy              =    -253.90891542 Ry
     estimated scf accuracy    <       1.64796642 Ry

     total magnetization       =     3.48 Bohr mag/cell
     absolute magnetization    =     3.50 Bohr mag/cell

     iteration #  2     ecut=    70.00 Ry     beta= 0.70
     Davidson diagonalization with overlap
     ethr =  1.00E-02,  avg # of iterations =  1.1

     negative rho (up, down):  0.000E+00 5.072E-05

     total cpu time spent up to now is        1.7 secs

     total energy              =    -254.13901823 Ry
     estimated scf accuracy    <       0.30888481 Ry

     total magnetization       =     2.70 Bohr mag/cell
     absolute magnetization    =     2.77 Bohr mag/cell

     iteration #  3     ecut=    70.00 Ry     beta= 0.70
     Davidson diagonalization with overlap
     ethr =  1.93E-03,  avg # of iterations =  1.9

     negative rho (up, down):  0.000E+00 4.333E-05

     total cpu time spent up to now is        2.3 secs

     total energy              =    -254.16894273 Ry
     estimated scf accuracy    <       0.27934147 Ry

     total magnetization       =     1.89 Bohr mag/cell
     absolute magnetization    =     1.94 Bohr mag/cell

     iteration #  4     ecut=    70.00 Ry     beta= 0.70
     Davidson diagonalization with overlap
     ethr =  1.75E-03,  avg # of iterations =  2.0

     negative rho (up, down):  0.000E+00 1.539E-05

     total cpu time spent up to now is        2.8 secs

     total energy              =    -254.21066724 Ry
     estimated scf accuracy    <       0.00457945 Ry

     total magnetization       =     1.80 Bohr mag/cell
     absolute magnetization    =     1.85 Bohr mag/cell

     iteration #  5     ecut=    70.00 Ry     beta= 0.70
     Davidson diagonalization with overlap
     ethr =  2.86E-05,  avg # of iterations =  4.1

     negative rho (up, down):  0.000E+00 1.563E-06

     total cpu time spent up to now is        3.4 secs

     total energy              =    -254.21372869 Ry
     estimated scf accuracy    <       0.00076496 Ry

     total magnetization       =     1.66 Bohr mag/cell
     absolute magnetization    =     1.69 Bohr mag/cell

     iteration #  6     ecut=    70.00 Ry     beta= 0.70
     Davidson diagonalization with overlap
     ethr =  4.78E-06,  avg # of iterations =  2.4

     total cpu time spent up to now is        4.0 secs

     total energy              =    -254.21404972 Ry
     estimated scf accuracy    <       0.00041250 Ry

     total magnetization       =     1.60 Bohr mag/cell
     absolute magnetization    =     1.63 Bohr mag/cell

     iteration #  7     ecut=    70.00 Ry     beta= 0.70
     Davidson diagonalization with overlap
     ethr =  2.58E-06,  avg # of iterations =  1.9

     total cpu time spent up to now is        4.5 secs

     total energy              =    -254.21412819 Ry
     estimated scf accuracy    <       0.00000142 Ry

     total magnetization       =     1.60 Bohr mag/cell
     absolute magnetization    =     1.62 Bohr mag/cell

     iteration #  8     ecut=    70.00 Ry     beta= 0.70
     Davidson diagonalization with overlap
     ethr =  8.88E-09,  avg # of iterations =  4.9

     total cpu time spent up to now is        5.2 secs

     total energy              =    -254.21413096 Ry
     estimated scf accuracy    <       0.00000038 Ry

     total magnetization       =     1.59 Bohr mag/cell
     absolute magnetization    =     1.62 Bohr mag/cell

     iteration #  9     ecut=    70.00 Ry     beta= 0.70
     Davidson diagonalization with overlap
     ethr =  2.37E-09,  avg # of iterations =  1.9

     total cpu time spent up to now is        5.7 secs

     total energy              =    -254.21413102 Ry
     estimated scf accuracy    <       0.00000008 Ry

     total magnetization       =     1.59 Bohr mag/cell
     absolute magnetization    =     1.62 Bohr mag/cell

     iteration # 10     ecut=    70.00 Ry     beta= 0.70
     Davidson diagonalization with overlap
     ethr =  5.08E-10,  avg # of iterations =  1.9

     Magnetic moment per site  (integrated on atomic sphere of radius R)
     atom   1 (R=0.357)  charge= 14.1801  magn=  1.5791

     total cpu time spent up to now is        6.2 secs

     End of self-consistent calculation

 ------ SPIN UP ------------


          k = 0.0000 0.0000 0.1000 (   587 PWs)   bands (ev):

   -62.8485 -28.7175 -28.6986 -28.6986  14.8192  21.8547  21.8547  21.9433
    23.7493  23.9657  51.0253  52.1572

          k = 0.0000-0.1000 0.2000 (   586 PWs)   bands (ev):

   -62.8044 -28.9024 -28.7587 -28.7044  15.7894  21.5604  21.7873  22.5600
    23.4145  24.0700  48.1571  50.8790

          k = 0.0000-0.2000 0.3000 (   590 PWs)   bands (ev):

   -62.7327 -29.2049 -28.8557 -28.7052  17.3184  21.0658  21.6311  23.4067
    23.6857  24.1965  43.7532  48.5165

          k = 0.0000-0.3000 0.4000 (   582 PWs)   bands (ev):

   -62.6604 -29.5000 -28.9514 -28.7059  18.2236  20.5980  22.3413  23.7751
    24.5022  24.9486  39.0886  46.5076

          k = 0.0000-0.4000 0.5000 (   580 PWs)   bands (ev):

   -62.6153 -29.6804 -29.0099 -28.7060  18.2228  20.3210  23.3295  23.9088
    25.7139  25.8224  35.5027  45.3771

          k =-0.1000 0.1000 0.1000 (   594 PWs)   bands (ev):

   -62.8262 -28.8436 -28.7003 -28.7003  15.3167  21.6529  21.6529  22.4455
    23.8108  23.8108  50.0377  50.0377

          k =-0.1000-0.1000 0.3000 (   589 PWs)   bands (ev):

   -62.7474 -29.1084 -28.8284 -28.7470  17.0469  21.4314  21.4456  23.0958
    23.4056  24.3132  45.7485  47.6458

          k =-0.1000-0.2000 0.4000 (   585 PWs)   bands (ev):

   -62.6764 -29.3695 -28.9414 -28.7595  18.3909  20.8833  21.4036  23.2905
    24.3660  25.0651  41.6592  45.0242

          k =-0.1000-0.3000 0.5000 (   579 PWs)   bands (ev):

   -62.6185 -29.5778 -29.0388 -28.7618  18.7019  20.5901  21.9491  23.6740
    24.8847  26.9041  37.2533  43.5706

          k =-0.1000 0.6000-0.4000 (   586 PWs)   bands (ev):

   -62.5963 -29.6572 -29.0768 -28.7625  18.6143  20.4909  22.3033  23.7380
    25.2958  28.2836  34.9088  43.0395

          k =-0.2000 0.2000 0.1000 (   588 PWs)   bands (ev):

   -62.7674 -29.0914 -28.7810 -28.7033  16.6530  21.1831  21.4091  23.4604
    23.6365  23.9396  46.0392  48.2256

          k =-0.2000-0.2000 0.5000 (   580 PWs)   bands (ev):

   -62.6198 -29.4963 -29.0836 -28.7931  19.3036  20.3721  21.4003  23.4839
    24.5974  27.2986  39.4939  40.7711

          k =-0.2000 0.7000-0.4000 (   580 PWs)   bands (ev):

   -62.5846 -29.5478 -29.2084 -28.8032  19.4279  20.4431  21.2756  23.8372
    24.7775  30.0536  35.7954  39.3248

          k =-0.3000 0.3000 0.1000 (   576 PWs)   bands (ev):

   -62.6941 -29.3769 -28.8949 -28.7071  18.0709  20.6736  21.5661  23.7362
    24.0800  24.8546  41.3865  46.2879

          k =-0.3000 0.2000 0.2000 (   592 PWs)   bands (ev):

   -62.7071 -29.3166 -28.8465 -28.7509  18.0991  20.8238  20.8879  23.6696
    24.0936  24.9346  43.5487  44.7419

          k =-0.3000 0.7000-0.3000 (   571 PWs)   bands (ev):

   -62.5716 -29.4071 -29.4071 -28.8135  20.0409  20.5059  20.5059  24.3565
    24.3565  33.5360  33.5360  37.1566

          k =-0.4000 0.4000 0.1000 (   580 PWs)   bands (ev):

   -62.6344 -29.6017 -28.9897 -28.7109  18.3872  20.2982  23.0375  23.9521
    24.1997  26.3669  37.0552  44.8396

          k =-0.4000 0.3000 0.2000 (   581 PWs)   bands (ev):

   -62.6463 -29.4968 -28.9785 -28.7718  19.0269  20.4002  21.3039  23.8273
    24.2655  26.8318  39.4129  42.6872

          k = 0.5000-0.5000 0.1000 (   586 PWs)   bands (ev):

   -62.6116 -29.6869 -29.0263 -28.7123  18.3142  20.1614  24.0062  24.0455
    24.2492  27.3281  34.8933  44.3078

          k = 0.5000-0.6000 0.2000 (   580 PWs)   bands (ev):

   -62.6086 -29.5924 -29.0802 -28.7800  18.9500  20.2002  22.3381  24.0154
    24.3941  28.8921  35.6330  41.7153

          k = 0.5000-0.7000 0.3000 (   581 PWs)   bands (ev):

   -62.6076 -29.5122 -29.1343 -28.8181  19.5722  20.3182  21.2594  23.9917
    24.3834  29.4880  37.3699  38.9873

          k = 0.4000-0.6000 0.3000 (   576 PWs)   bands (ev):

   -62.5927 -29.4708 -29.2452 -28.8312  19.5926  20.3922  21.3349  24.1447
    24.3721  31.8184  34.7520  38.0967

          k = 0.0000 0.0000 0.3000 (   587 PWs)   bands (ev):

   -62.7628 -28.9540 -28.8210 -28.8210  16.6757  21.9300  21.9300  22.5732
    22.6076  24.4237  47.3261  50.3531

          k = 0.0000-0.1000 0.4000 (   590 PWs)   bands (ev):

   -62.6951 -29.1935 -28.9217 -28.8487  18.0378  21.4447  21.6886  22.6390
    23.5434  24.8480  44.3107  47.6565

          k = 0.0000-0.2000 0.5000 (   580 PWs)   bands (ev):

   -62.6267 -29.4602 -29.0202 -28.8430  18.8426  21.0950  21.3042  23.2438
    24.8283  25.9629  39.6331  46.0921

          k = 0.0000-0.3000 0.6000 (   575 PWs)   bands (ev):

   -62.5841 -29.6248 -29.0805 -28.8375  18.7661  21.0664  21.4029  23.3822
    25.7384  28.1119  35.6995  45.1643

          k =-0.1000-0.1000 0.5000 (   581 PWs)   bands (ev):

   -62.6298 -29.3624 -29.0423 -28.8989  19.0503  20.6267  21.8858  22.8484
    24.3557  25.9985  42.1824  43.2949

          k =-0.1000-0.2000 0.6000 (   583 PWs)   bands (ev):

   -62.5767 -29.5185 -29.1557 -28.9017  19.3351  20.3409  21.5853  23.3824
    25.0907  28.4333  37.9032  41.3976

          k =-0.1000 0.7000-0.3000 (   576 PWs)   bands (ev):

   -62.5563 -29.5792 -29.1992 -28.8997  19.1741  20.6001  21.3034  23.5337
    25.4825  30.5792  35.0363  40.8144

          k =-0.2000 0.8000-0.3000 (   579 PWs)   bands (ev):

   -62.5457 -29.4913 -29.3283 -28.9110  19.7758  19.9015  21.1916  24.1402
    24.9459  31.8181  35.9475  37.7962

          k =-0.3000 0.3000 0.3000 (   586 PWs)   bands (ev):

   -62.6570 -29.4612 -28.8685 -28.8685  19.5380  20.3957  20.3957  24.0463
    24.0463  26.8869  41.7284  41.7284

          k = 0.6000-0.6000 0.3000 (   580 PWs)   bands (ev):

   -62.6163 -29.5062 -29.0365 -28.8858  19.7430  20.1643  21.1682  24.1332
    24.2316  29.2725  37.7286  40.5349

          k = 0.5000-0.5000 0.3000 (   566 PWs)   bands (ev):

   -62.6007 -29.4945 -29.1283 -28.8923  19.5791  20.0944  21.7690  24.1910
    24.2834  31.1861  35.0394  40.1184

          k = 0.5000-0.6000 0.4000 (   571 PWs)   bands (ev):

   -62.5978 -29.3966 -29.1751 -28.9698  19.9543  20.4142  20.9933  24.2447
    24.2939  32.2814  36.0038  37.7459

          k = 0.0000 0.0000 0.5000 (   583 PWs)   bands (ev):

   -62.6337 -29.2250 -29.0267 -29.0267  18.9308  20.8318  22.4952  22.4952
    23.6290  25.7881  45.0274  45.5721

          k = 0.0000-0.1000 0.6000 (   585 PWs)   bands (ev):

   -62.5719 -29.3988 -29.1306 -29.0589  19.3252  19.9979  22.5469  23.0798
    24.6620  27.6245  40.6533  43.2661

          k = 0.0000-0.2000 0.7000 (   580 PWs)   bands (ev):

   -62.5335 -29.5347 -29.1940 -29.0477  19.0943  19.8424  22.4172  23.3464
    25.6039  30.5290  36.2435  41.8478

          k =-0.1000-0.1000 0.7000 (   583 PWs)   bands (ev):

   -62.5248 -29.4598 -29.2641 -29.0907  19.3030  19.3182  22.6627  23.8924
    25.1608  30.3771  38.6837  39.4063

          k =-0.1000 0.8000-0.2000 (   578 PWs)   bands (ev):

   -62.5067 -29.4829 -29.3297 -29.0869  19.0408  19.2900  22.5765  24.3190
    25.4040  33.2515  35.4436  38.4794

          k = 0.5000-0.5000 0.5000 (   544 PWs)   bands (ev):

   -62.5939 -29.1894 -29.1894 -29.1894  20.4826  20.4826  20.4826  24.3047
    24.3047  35.5368  35.5368  35.5368

          k = 0.0000 0.0000 0.7000 (   582 PWs)   bands (ev):

   -62.5168 -29.3680 -29.2392 -29.2392  19.0587  19.1661  23.7863  23.7863
    24.7323  29.8030  40.6551  40.6551

          k = 0.0000-0.1000 0.8000 (   577 PWs)   bands (ev):

   -62.4825 -29.4437 -29.3057 -29.2533  18.6584  18.7615  24.0463  24.3450
    25.4728  32.8761  37.1318  39.0292

          k =-0.1000 0.9000-0.1000 (   580 PWs)   bands (ev):

   -62.4664 -29.4045 -29.4045 -29.2655  18.4716  18.4716  24.2034  25.3019
    25.3019  35.8247  35.8247  36.9339

          k = 0.0000 0.0000 0.9000 (   598 PWs)   bands (ev):

   -62.4510 -29.3935 -29.3747 -29.3747  18.1937  18.2141  25.2595  25.2595
    25.4388  35.2792  37.2158  37.2158

 ------ SPIN DOWN ----------


          k = 0.0000 0.0000 0.1000 (   587 PWs)   bands (ev):

   -60.9925 -26.8861 -26.8655 -26.8655  15.1786  23.1444  23.1444  23.2422
    25.5598  25.8065  51.2867  52.3599

          k = 0.0000-0.1000 0.2000 (   586 PWs)   bands (ev):

   -60.9460 -27.0835 -26.9291 -26.8718  16.1623  22.8230  23.0586  23.8872
    25.1625  25.9181  48.6533  51.2070

          k = 0.0000-0.2000 0.3000 (   590 PWs)   bands (ev):

   -60.8701 -27.4061 -27.0317 -26.8729  17.7709  22.2866  22.8213  25.0715
    25.0743  26.0442  44.4609  48.8717

          k = 0.0000-0.3000 0.4000 (   582 PWs)   bands (ev):

   -60.7936 -27.7203 -27.1329 -26.8739  18.9673  21.7822  23.2961  25.3804
    26.2614  26.4112  39.9512  46.8377

          k = 0.0000-0.4000 0.5000 (   580 PWs)   bands (ev):

   -60.7459 -27.9120 -27.1947 -26.8741  19.1513  21.4848  24.4800  25.5698
    26.8994  27.3474  36.5350  45.6798

          k =-0.1000 0.1000 0.1000 (   594 PWs)   bands (ev):

   -60.9689 -27.0204 -26.8673 -26.8673  15.6816  22.9267  22.9267  23.7644
    25.6252  25.6252  50.4182  50.4183

          k =-0.1000-0.1000 0.3000 (   589 PWs)   bands (ev):

   -60.8857 -27.3032 -27.0031 -26.9171  17.4599  22.6713  22.6988  24.7534
    24.7609  26.1626  46.3874  48.1687

          k =-0.1000-0.2000 0.4000 (   585 PWs)   bands (ev):

   -60.8106 -27.5812 -27.1229 -26.9305  18.9839  22.1023  22.5406  24.8783
    25.9854  26.6222  42.4380  45.5925

          k =-0.1000-0.3000 0.5000 (   579 PWs)   bands (ev):

   -60.7493 -27.8026 -27.2261 -26.9332  19.6011  21.7632  23.0203  25.2737
    26.5072  28.1837  38.1722  44.1371

          k =-0.1000 0.6000-0.4000 (   586 PWs)   bands (ev):

   -60.7259 -27.8869 -27.2663 -26.9339  19.5939  21.6527  23.4505  25.3723
    26.8468  29.3628  35.9561  43.5970

          k =-0.2000 0.2000 0.1000 (   588 PWs)   bands (ev):

   -60.9067 -27.2848 -26.9529 -26.8708  17.0475  22.4166  22.6471  24.8156
    25.3891  25.7685  46.6424  48.6850

          k =-0.2000-0.2000 0.5000 (   580 PWs)   bands (ev):

   -60.7507 -27.7157 -27.2747 -26.9660  20.1249  21.5736  22.4886  25.0580
    26.2823  28.5886  40.3611  41.4229

          k =-0.2000 0.7000-0.4000 (   580 PWs)   bands (ev):

   -60.7135 -27.7701 -27.4076 -26.9766  20.4446  21.5938  22.3913  25.4306
    26.3885  31.1406  36.7444  40.0226

          k =-0.3000 0.3000 0.1000 (   576 PWs)   bands (ev):

   -60.8293 -27.5891 -27.0735 -26.8751  18.6412  21.8629  22.6173  25.4464
    25.9328  26.2364  42.1594  46.7310

          k =-0.3000 0.2000 0.2000 (   592 PWs)   bands (ev):

   -60.8429 -27.5245 -27.0228 -26.9214  18.5666  22.0267  22.0571  25.4075
    25.9219  26.3012  44.2377  45.3293

          k =-0.3000 0.7000-0.3000 (   571 PWs)   bands (ev):

   -60.6998 -27.6199 -27.6199 -26.9873  21.1113  21.6377  21.6377  25.9525
    25.9525  34.5183  34.5183  37.9023

          k =-0.4000 0.4000 0.1000 (   580 PWs)   bands (ev):

   -60.7661 -27.8284 -27.1738 -26.8794  19.2547  21.4562  23.8169  25.6439
    26.0779  27.6845  37.9879  45.2395

          k =-0.4000 0.3000 0.2000 (   581 PWs)   bands (ev):

   -60.7787 -27.7165 -27.1630 -26.9439  19.7921  21.5516  22.2683  25.5504
    26.1083  28.1263  40.2233  43.2970

          k = 0.5000-0.5000 0.1000 (   586 PWs)   bands (ev):

   -60.7419 -27.9189 -27.2123 -26.8809  19.2571  21.3085  24.7987  25.7183
    26.1390  28.4859  35.9592  44.6875

          k = 0.5000-0.6000 0.2000 (   580 PWs)   bands (ev):

   -60.7387 -27.8183 -27.2708 -26.9528  19.9047  21.3253  23.2685  25.7422
    26.2111  29.9901  36.6002  42.3113

          k = 0.5000-0.7000 0.3000 (   581 PWs)   bands (ev):

   -60.7376 -27.7325 -27.3295 -26.9930  20.5415  21.4208  22.2145  25.7238
    26.1915  30.6217  38.2381  39.6748

          k = 0.4000-0.6000 0.3000 (   576 PWs)   bands (ev):

   -60.7219 -27.6886 -27.4476 -27.0069  20.6139  21.4686  22.3477  25.8901
    26.1488  32.7963  35.7070  38.8103

          k = 0.0000 0.0000 0.3000 (   587 PWs)   bands (ev):

   -60.9020 -27.1395 -26.9952 -26.9952  17.0706  23.1943  23.1943  23.9046
    24.2616  26.2831  47.8829  50.8907

          k = 0.0000-0.1000 0.4000 (   590 PWs)   bands (ev):

   -60.8304 -27.3942 -27.1017 -27.0250  18.5324  22.7928  22.9305  24.0836
    24.9204  26.6357  45.0408  48.1666

          k = 0.0000-0.2000 0.5000 (   580 PWs)   bands (ev):

   -60.7581 -27.6775 -27.2060 -27.0194  19.6400  22.3150  22.5167  24.7070
    26.2817  27.4447  40.4777  46.6095

          k = 0.0000-0.3000 0.6000 (   575 PWs)   bands (ev):

   -60.7131 -27.8522 -27.2698 -27.0137  19.7736  22.2613  22.5913  24.9107
    27.2575  29.2074  36.6865  45.7816

          k =-0.1000-0.1000 0.5000 (   581 PWs)   bands (ev):

   -60.7615 -27.5735 -27.2300 -27.0782  19.7473  21.9604  23.1055  24.2427
    25.8245  27.5044  43.0160  43.9220

          k =-0.1000-0.2000 0.6000 (   583 PWs)   bands (ev):

   -60.7054 -27.7388 -27.3505 -27.0812  20.3393  21.5428  22.8041  24.8215
    26.5988  29.6109  38.7801  42.0891

          k =-0.1000 0.7000-0.3000 (   576 PWs)   bands (ev):

   -60.6838 -27.8030 -27.3968 -27.0791  20.2774  21.7907  22.5021  24.9932
    26.9979  31.5771  36.0164  41.4967

          k =-0.2000 0.8000-0.3000 (   579 PWs)   bands (ev):

   -60.6727 -27.7089 -27.5347 -27.0906  20.9921  21.0282  22.3633  25.5953
    26.4449  32.8317  36.8862  38.5054

          k =-0.3000 0.3000 0.3000 (   586 PWs)   bands (ev):

   -60.7899 -27.6783 -27.0466 -27.0466  20.0994  21.5358  21.5358  25.8643
    25.8643  28.1890  42.4249  42.4249

          k = 0.6000-0.6000 0.3000 (   580 PWs)   bands (ev):

   -60.7468 -27.7262 -27.2255 -27.0657  20.6847  21.2615  22.0552  25.9412
    26.1060  30.4172  38.5501  41.2206

          k = 0.5000-0.5000 0.3000 (   566 PWs)   bands (ev):

   -60.7303 -27.7142 -27.3229 -27.0727  20.5610  21.1763  22.6949  25.9972
    26.1785  32.1512  35.9922  40.7973

          k = 0.5000-0.6000 0.4000 (   571 PWs)   bands (ev):

   -60.7271 -27.6097 -27.3737 -27.1551  20.9832  21.4457  21.9386  26.0960
    26.1729  33.2533  36.8589  38.4882

          k = 0.0000 0.0000 0.5000 (   583 PWs)   bands (ev):

   -60.7656 -27.4284 -27.2131 -27.2131  19.5891  22.2798  23.7568  23.7568
    25.0188  27.3714  45.8495  46.2418

          k = 0.0000-0.1000 0.6000 (   585 PWs)   bands (ev):

   -60.7004 -27.6116 -27.3232 -27.2481  20.2626  21.3188  23.8130  24.4063
    26.1054  28.8595  41.4409  43.9184

          k = 0.0000-0.2000 0.7000 (   580 PWs)   bands (ev):

   -60.6599 -27.7551 -27.3904 -27.2365  20.2524  21.0447  23.6765  24.7021
    27.1140  31.5045  37.1220  42.4594

          k =-0.1000-0.1000 0.7000 (   583 PWs)   bands (ev):

   -60.6507 -27.6752 -27.4654 -27.2814  20.4138  20.5895  23.9247  25.2535
    26.6385  31.3656  39.5037  40.0610

          k =-0.1000 0.8000-0.2000 (   578 PWs)   bands (ev):

   -60.6316 -27.6990 -27.5354 -27.2773  20.2574  20.4956  23.8157  25.7163
    26.8952  34.1239  36.2872  39.1523

          k = 0.5000-0.5000 0.5000 (   544 PWs)   bands (ev):

   -60.7230 -27.3894 -27.3894 -27.3894  21.4855  21.4855  21.4855  26.2030
    26.2030  36.3844  36.3844  36.3844

          k = 0.0000 0.0000 0.7000 (   582 PWs)   bands (ev):

   -60.6424 -27.5783 -27.4385 -27.4385  20.1584  20.4576  25.1130  25.1130
    26.1887  30.7673  41.2716  41.2716

          k = 0.0000-0.1000 0.8000 (   577 PWs)   bands (ev):

   -60.6063 -27.6570 -27.5090 -27.4541  19.8790  19.9637  25.4071  25.7124
    26.9744  33.6604  37.8125  39.5872

          k =-0.1000 0.9000-0.1000 (   580 PWs)   bands (ev):

   -60.5892 -27.6144 -27.6144 -27.4667  19.6838  19.6838  25.5648  26.7773
    26.7773  36.4896  36.4896  37.4987

          k = 0.0000 0.0000 0.9000 (   598 PWs)   bands (ev):

   -60.5731 -27.6026 -27.5822 -27.5822  19.4077  19.4145  26.7292  26.7292
    26.9409  35.8460  37.6868  37.6868

     the Fermi energy is    24.8229 ev

!    total energy              =    -254.21413103 Ry
     estimated scf accuracy    <          2.7E-09 Ry
     smearing contrib. (-TS)   =      -0.00032958 Ry
     internal energy E=F+TS    =    -254.21380145 Ry

     The total energy is F=E-TS. E is the sum of the following terms:
     one-electron contribution =     -85.91293990 Ry
     hartree contribution      =      56.49703204 Ry
     xc contribution           =     -34.66651337 Ry
     ewald contribution        =    -190.13138022 Ry

     total magnetization       =     1.59 Bohr mag/cell
     absolute magnetization    =     1.62 Bohr mag/cell

     convergence has been achieved in  10 iterations

     Writing output data file ./tempdir/fe.save/

     init_run     :      0.59s CPU      0.61s WALL (       1 calls)
     electrons    :      5.30s CPU      5.55s WALL (       1 calls)

     Called by init_run:
     wfcinit      :      0.14s CPU      0.14s WALL (       1 calls)
     potinit      :      0.02s CPU      0.02s WALL (       1 calls)
     hinit0       :      0.38s CPU      0.39s WALL (       1 calls)

     Called by electrons:
     c_bands      :      3.36s CPU      3.43s WALL (      10 calls)
     sum_band     :      1.40s CPU      1.48s WALL (      10 calls)
     v_of_rho     :      0.11s CPU      0.11s WALL (      11 calls)
     newd         :      0.41s CPU      0.50s WALL (      11 calls)
     mix_rho      :      0.04s CPU      0.04s WALL (      10 calls)

     Called by c_bands:
     init_us_2    :      0.09s CPU      0.09s WALL (     924 calls)
     cegterg      :      2.98s CPU      3.04s WALL (     440 calls)

     Called by *egterg:
     cdiaghg      :      0.15s CPU      0.15s WALL (    1567 calls)
     h_psi        :      2.66s CPU      2.72s WALL (    1611 calls)
     s_psi        :      0.04s CPU      0.04s WALL (    1611 calls)
     g_psi        :      0.02s CPU      0.02s WALL (    1127 calls)

     Called by h_psi:
     h_psi:calbec :      0.06s CPU      0.06s WALL (    1611 calls)
     vloc_psi     :      2.55s CPU      2.61s WALL (    1611 calls)
     add_vuspsi   :      0.04s CPU      0.04s WALL (    1611 calls)

     General routines
     calbec       :      0.07s CPU      0.08s WALL (    2051 calls)
     fft          :      0.09s CPU      0.09s WALL (     115 calls)
     ffts         :      0.01s CPU      0.01s WALL (      42 calls)
     fftw         :      2.75s CPU      2.81s WALL (   32308 calls)
     interpolate  :      0.02s CPU      0.02s WALL (      22 calls)

     Parallel routines

     PWSCF        :      5.98s CPU      6.24s WALL


   This run was terminated on:  22: 0:54  18Apr2021            

=------------------------------------------------------------------------------=
   JOB DONE.
=------------------------------------------------------------------------------=
