
     Program PWSCF v.6.7GPU starts on 18Apr2021 at 22: 0:54 

     This program is part of the open-source Quantum ESPRESSO suite
     for quantum simulation of materials; please cite
         "P. Giannozzi et al., J. Phys.:Condens. Matter 21 395502 (2009);
         "P. Giannozzi et al., J. Phys.:Condens. Matter 29 465901 (2017);
         "P. Giannozzi et al., J. Chem. Phys. 152 154105 (2020);
          URL http://www.quantum-espresso.org", 
     in publications or presentations arising from this work. More details at
     http://www.quantum-espresso.org/quote

     Parallel version (MPI & OpenMP), running on       2 processor cores
     Number of MPI processes:                 2
     Threads/MPI process:                     1

     MPI processes distributed on     1 nodes
     K-points division:     npool     =       2
     Waiting for input...
     Reading input from standard input

     Current dimensions of program PWSCF are:
     Max number of different atomic species (ntypx) = 10
     Max number of k-points (npk) =  40000
     Max angular momentum in pseudopotentials (lmaxx) =  3

     Subspace diagonalization in iterative solution of the eigenvalue problem:
     a serial algorithm will be used


     G-vector sticks info
     --------------------
     sticks:   dense  smooth     PW     G-vecs:    dense   smooth      PW
     Sum        1199     395    129                26227     4921     935

     Using Slab Decomposition



     bravais-lattice index     =            3
     lattice parameter (alat)  =       5.0000  a.u.
     unit-cell volume          =      62.5000 (a.u.)^3
     number of atoms/cell      =            1
     number of atomic types    =            1
     number of electrons       =        16.00
     number of Kohn-Sham states=           12
     kinetic-energy cutoff     =      70.0000  Ry
     charge density cutoff     =     850.0000  Ry
     scf convergence threshold =      1.0E-08
     mixing beta               =       0.7000
     number of iterations used =            8  plain     mixing
     Exchange-correlation= LDA
                           (   1   1   0   0   0   0   0)

     celldm(1)=   5.000000  celldm(2)=   0.000000  celldm(3)=   0.000000
     celldm(4)=   0.000000  celldm(5)=   0.000000  celldm(6)=   0.000000

     crystal axes: (cart. coord. in units of alat)
               a(1) = (   0.500000   0.500000   0.500000 )  
               a(2) = (  -0.500000   0.500000   0.500000 )  
               a(3) = (  -0.500000  -0.500000   0.500000 )  

     reciprocal axes: (cart. coord. in units 2 pi/alat)
               b(1) = (  1.000000  0.000000  1.000000 )  
               b(2) = ( -1.000000  1.000000  0.000000 )  
               b(3) = (  0.000000 -1.000000  1.000000 )  


     PseudoPot. # 1 for Fe read from file:
     /home/pietro/repositories/materials-for-max-qe2021-online-school/pseudo/Fe.pz-spn-rrkjus_psl.0.2.1.UPF
     MD5 check sum: 3cbc4c6ff80f64c0ae98e6ac432cb3b7
     Pseudo is Ultrasoft + core correction, Zval = 16.0
     Generated using "atomic" code by A. Dal Corso  v.5.0.2 svn rev. 9415
     Using radial grid of 1191 points,  6 beta functions with: 
                l(1) =   0
                l(2) =   0
                l(3) =   1
                l(4) =   1
                l(5) =   2
                l(6) =   2
     Q(r) pseudized with 0 coefficients 


     atomic species   valence    mass     pseudopotential
        Fe            16.00    55.84500     Fe( 1.00)

     Starting magnetic structure 
     atomic species   magnetization
        Fe           0.700

     48 Sym. Ops., with inversion, found



   Cartesian axes

     site n.     atom                  positions (alat units)
         1           Fe  tau(   1) = (   0.0000000   0.0000000   0.0000000  )

     number of k points=    44  Marzari-Vanderbilt smearing, width (Ry)=  0.0200
                       cart. coord. in units 2pi/alat
        k(    1) = (   0.0000000   0.0000000   0.1000000), wk =   0.0060000
        k(    2) = (   0.0000000  -0.1000000   0.2000000), wk =   0.0240000
        k(    3) = (   0.0000000  -0.2000000   0.3000000), wk =   0.0240000
        k(    4) = (   0.0000000  -0.3000000   0.4000000), wk =   0.0240000
        k(    5) = (   0.0000000  -0.4000000   0.5000000), wk =   0.0240000
        k(    6) = (  -0.1000000   0.1000000   0.1000000), wk =   0.0080000
        k(    7) = (  -0.1000000  -0.1000000   0.3000000), wk =   0.0240000
        k(    8) = (  -0.1000000  -0.2000000   0.4000000), wk =   0.0480000
        k(    9) = (  -0.1000000  -0.3000000   0.5000000), wk =   0.0480000
        k(   10) = (  -0.1000000   0.6000000  -0.4000000), wk =   0.0240000
        k(   11) = (  -0.2000000   0.2000000   0.1000000), wk =   0.0240000
        k(   12) = (  -0.2000000  -0.2000000   0.5000000), wk =   0.0240000
        k(   13) = (  -0.2000000   0.7000000  -0.4000000), wk =   0.0480000
        k(   14) = (  -0.3000000   0.3000000   0.1000000), wk =   0.0240000
        k(   15) = (  -0.3000000   0.2000000   0.2000000), wk =   0.0240000
        k(   16) = (  -0.3000000   0.7000000  -0.3000000), wk =   0.0080000
        k(   17) = (  -0.4000000   0.4000000   0.1000000), wk =   0.0240000
        k(   18) = (  -0.4000000   0.3000000   0.2000000), wk =   0.0480000
        k(   19) = (   0.5000000  -0.5000000   0.1000000), wk =   0.0120000
        k(   20) = (   0.5000000  -0.6000000   0.2000000), wk =   0.0480000
        k(   21) = (   0.5000000  -0.7000000   0.3000000), wk =   0.0240000
        k(   22) = (   0.4000000  -0.6000000   0.3000000), wk =   0.0240000
        k(   23) = (   0.0000000   0.0000000   0.3000000), wk =   0.0060000
        k(   24) = (   0.0000000  -0.1000000   0.4000000), wk =   0.0240000
        k(   25) = (   0.0000000  -0.2000000   0.5000000), wk =   0.0240000
        k(   26) = (   0.0000000  -0.3000000   0.6000000), wk =   0.0240000
        k(   27) = (  -0.1000000  -0.1000000   0.5000000), wk =   0.0240000
        k(   28) = (  -0.1000000  -0.2000000   0.6000000), wk =   0.0480000
        k(   29) = (  -0.1000000   0.7000000  -0.3000000), wk =   0.0240000
        k(   30) = (  -0.2000000   0.8000000  -0.3000000), wk =   0.0240000
        k(   31) = (  -0.3000000   0.3000000   0.3000000), wk =   0.0080000
        k(   32) = (   0.6000000  -0.6000000   0.3000000), wk =   0.0240000
        k(   33) = (   0.5000000  -0.5000000   0.3000000), wk =   0.0120000
        k(   34) = (   0.5000000  -0.6000000   0.4000000), wk =   0.0240000
        k(   35) = (   0.0000000   0.0000000   0.5000000), wk =   0.0060000
        k(   36) = (   0.0000000  -0.1000000   0.6000000), wk =   0.0240000
        k(   37) = (   0.0000000  -0.2000000   0.7000000), wk =   0.0240000
        k(   38) = (  -0.1000000  -0.1000000   0.7000000), wk =   0.0240000
        k(   39) = (  -0.1000000   0.8000000  -0.2000000), wk =   0.0240000
        k(   40) = (   0.5000000  -0.5000000   0.5000000), wk =   0.0020000
        k(   41) = (   0.0000000   0.0000000   0.7000000), wk =   0.0060000
        k(   42) = (   0.0000000  -0.1000000   0.8000000), wk =   0.0240000
        k(   43) = (  -0.1000000   0.9000000  -0.1000000), wk =   0.0080000
        k(   44) = (   0.0000000   0.0000000   0.9000000), wk =   0.0060000

     Dense  grid:    26227 G-vectors     FFT dimensions: (  45,  45,  45)

     Smooth grid:     4921 G-vectors     FFT dimensions: (  24,  24,  24)

     Estimated max dynamical RAM per process >      74.10 MB

     Estimated total dynamical RAM >     135.39 MB

     Check: negative core charge=   -0.000011
     Generating pointlists ...
     new r_m :   0.3572 (alat units)  1.7862 (a.u.) for type    1

     Initial potential from superposition of free atoms

     starting charge   15.99965, renormalised to   16.00000
     Starting wfcs are   13 randomized atomic wfcs

     total cpu time spent up to now is        0.7 secs

     Self-consistent Calculation

     iteration #  1     ecut=    70.00 Ry     beta= 0.70
     Davidson diagonalization with overlap
     ethr =  1.00E-02,  avg # of iterations =  3.9

     negative rho (up, down):  0.000E+00 4.115E-05

     total cpu time spent up to now is        1.3 secs

     total energy              =    -253.92414142 Ry
     estimated scf accuracy    <       1.61294313 Ry

     total magnetization       =     3.57 Bohr mag/cell
     absolute magnetization    =     3.59 Bohr mag/cell

     iteration #  2     ecut=    70.00 Ry     beta= 0.70
     Davidson diagonalization with overlap
     ethr =  1.00E-02,  avg # of iterations =  1.1

     negative rho (up, down):  0.000E+00 4.329E-05

     total cpu time spent up to now is        1.8 secs

     total energy              =    -254.14406131 Ry
     estimated scf accuracy    <       0.31392586 Ry

     total magnetization       =     2.80 Bohr mag/cell
     absolute magnetization    =     2.87 Bohr mag/cell

     iteration #  3     ecut=    70.00 Ry     beta= 0.70
     Davidson diagonalization with overlap
     ethr =  1.96E-03,  avg # of iterations =  2.2

     negative rho (up, down):  0.000E+00 3.901E-05

     total cpu time spent up to now is        2.4 secs

     total energy              =    -254.17340332 Ry
     estimated scf accuracy    <       0.33788689 Ry

     total magnetization       =     2.01 Bohr mag/cell
     absolute magnetization    =     2.07 Bohr mag/cell

     iteration #  4     ecut=    70.00 Ry     beta= 0.70
     Davidson diagonalization with overlap
     ethr =  1.96E-03,  avg # of iterations =  2.0

     negative rho (up, down):  0.000E+00 1.693E-05

     total cpu time spent up to now is        2.9 secs

     total energy              =    -254.22444299 Ry
     estimated scf accuracy    <       0.00506415 Ry

     total magnetization       =     1.88 Bohr mag/cell
     absolute magnetization    =     1.94 Bohr mag/cell

     iteration #  5     ecut=    70.00 Ry     beta= 0.70
     Davidson diagonalization with overlap
     ethr =  3.17E-05,  avg # of iterations =  4.0

     negative rho (up, down):  0.000E+00 1.084E-05

     total cpu time spent up to now is        3.6 secs

     total energy              =    -254.22752638 Ry
     estimated scf accuracy    <       0.00075080 Ry

     total magnetization       =     1.77 Bohr mag/cell
     absolute magnetization    =     1.80 Bohr mag/cell

     iteration #  6     ecut=    70.00 Ry     beta= 0.70
     Davidson diagonalization with overlap
     ethr =  4.69E-06,  avg # of iterations =  2.4

     negative rho (up, down):  0.000E+00 8.702E-06

     total cpu time spent up to now is        4.2 secs

     total energy              =    -254.22777137 Ry
     estimated scf accuracy    <       0.00033455 Ry

     total magnetization       =     1.78 Bohr mag/cell
     absolute magnetization    =     1.81 Bohr mag/cell

     iteration #  7     ecut=    70.00 Ry     beta= 0.70
     Davidson diagonalization with overlap
     ethr =  2.09E-06,  avg # of iterations =  2.3

     negative rho (up, down):  0.000E+00 8.990E-06

     total cpu time spent up to now is        4.8 secs

     total energy              =    -254.22784897 Ry
     estimated scf accuracy    <       0.00000354 Ry

     total magnetization       =     1.77 Bohr mag/cell
     absolute magnetization    =     1.80 Bohr mag/cell

     iteration #  8     ecut=    70.00 Ry     beta= 0.70
     Davidson diagonalization with overlap
     ethr =  2.21E-08,  avg # of iterations =  4.1

     negative rho (up, down):  0.000E+00 8.986E-06

     total cpu time spent up to now is        5.4 secs

     total energy              =    -254.22785197 Ry
     estimated scf accuracy    <       0.00000025 Ry

     total magnetization       =     1.77 Bohr mag/cell
     absolute magnetization    =     1.80 Bohr mag/cell

     iteration #  9     ecut=    70.00 Ry     beta= 0.70
     Davidson diagonalization with overlap
     ethr =  1.59E-09,  avg # of iterations =  2.6

     negative rho (up, down):  0.000E+00 8.946E-06

     total cpu time spent up to now is        6.0 secs

     total energy              =    -254.22785208 Ry
     estimated scf accuracy    <       0.00000005 Ry

     total magnetization       =     1.77 Bohr mag/cell
     absolute magnetization    =     1.80 Bohr mag/cell

     iteration # 10     ecut=    70.00 Ry     beta= 0.70
     Davidson diagonalization with overlap
     ethr =  3.30E-10,  avg # of iterations =  2.1

     negative rho (up, down):  0.000E+00 8.936E-06

     Magnetic moment per site  (integrated on atomic sphere of radius R)
     atom   1 (R=0.357)  charge= 14.2319  magn=  1.7617

     total cpu time spent up to now is        6.6 secs

     End of self-consistent calculation

 ------ SPIN UP ------------


          k = 0.0000 0.0000 0.1000 (   615 PWs)   bands (ev):

   -64.5066 -30.4758 -30.4603 -30.4603  13.4281  20.2707  20.2707  20.3517
    22.0019  22.1955  48.6609  49.7707

          k = 0.0000-0.1000 0.2000 (   621 PWs)   bands (ev):

   -64.4720 -30.6273 -30.5105 -30.4654  14.3545  20.0041  20.2111  20.9160
    21.7007  22.2884  45.6947  48.4128

          k = 0.0000-0.2000 0.3000 (   616 PWs)   bands (ev):

   -64.4157 -30.8750 -30.5908 -30.4655  15.8500  19.5542  20.0609  21.6901
    21.9452  22.4004  41.2215  46.0987

          k = 0.0000-0.3000 0.4000 (   619 PWs)   bands (ev):

   -64.3590 -31.1191 -30.6708 -30.4655  16.8296  19.1271  20.6860  22.0201
    22.6763  23.0982  36.5834  44.1658

          k = 0.0000-0.4000 0.5000 (   620 PWs)   bands (ev):

   -64.3238 -31.2674 -30.7202 -30.4654  16.8961  18.8735  21.6136  22.1390
    23.8423  23.8941  33.0332  43.0863

          k =-0.1000 0.1000 0.1000 (   621 PWs)   bands (ev):

   -64.4891 -30.5798 -30.4614 -30.4614  13.9022  20.0881  20.0881  20.8100
    22.0566  22.0566  47.5890  47.5890

          k =-0.1000-0.1000 0.3000 (   618 PWs)   bands (ev):

   -64.4272 -30.7960 -30.5676 -30.5006  15.5701  19.8914  19.8982  21.4119
    21.6884  22.5048  43.2729  45.0277

          k =-0.1000-0.2000 0.4000 (   619 PWs)   bands (ev):

   -64.3715 -31.0116 -30.6614 -30.5103  16.9238  19.3892  19.8461  21.5849
    22.5564  23.1985  39.1432  42.4778

          k =-0.1000-0.3000 0.5000 (   616 PWs)   bands (ev):

   -64.3262 -31.1834 -30.7426 -30.5117  17.3240  19.1185  20.3372  21.9301
    23.0305  24.9201  34.7814  41.0740

          k =-0.1000 0.6000-0.4000 (   612 PWs)   bands (ev):

   -64.3088 -31.2480 -30.7740 -30.5118  17.2686  19.0278  20.6714  21.9864
    23.4124  26.2633  32.4566  40.5627

          k =-0.2000 0.2000 0.1000 (   620 PWs)   bands (ev):

   -64.4429 -30.7827 -30.5289 -30.4640  15.1877  19.6611  19.8666  21.7371
    21.8980  22.1714  43.5286  45.7492

          k =-0.2000-0.2000 0.5000 (   617 PWs)   bands (ev):

   -64.3271 -31.1166 -30.7780 -30.5384  17.8551  18.9192  19.8395  21.7605
    22.7645  25.2803  37.0497  38.2123

          k =-0.2000 0.7000-0.4000 (   612 PWs)   bands (ev):

   -64.2996 -31.1588 -30.8809 -30.5463  18.0229  18.9777  19.7262  22.0795
    22.9338  27.9176  33.3881  36.8291

          k =-0.3000 0.3000 0.1000 (   622 PWs)   bands (ev):

   -64.3856 -31.0179 -30.6238 -30.4674  16.6165  19.1959  19.9818  21.9853
    22.2959  23.0128  38.8697  43.8658

          k =-0.3000 0.2000 0.2000 (   618 PWs)   bands (ev):

   -64.3957 -30.9676 -30.5818 -30.5032  16.5970  19.3341  19.3857  21.9271
    22.3075  23.0856  41.0732  42.2137

          k =-0.3000 0.7000-0.3000 (   616 PWs)   bands (ev):

   -64.2895 -31.0442 -31.0442 -30.5553  18.6039  19.0231  19.0231  22.5516
    22.5516  31.2669  31.2669  34.6387

          k =-0.4000 0.4000 0.1000 (   618 PWs)   bands (ev):

   -64.3389 -31.2023 -30.7023 -30.4699  17.0269  18.8519  21.3298  22.1790
    22.4012  24.4175  34.5807  42.4853

          k =-0.4000 0.3000 0.2000 (   623 PWs)   bands (ev):

   -64.3482 -31.1170 -30.6913 -30.5203  17.5852  18.9428  19.7301  22.0680
    22.4604  24.8445  36.9418  40.1995

          k = 0.5000-0.5000 0.1000 (   616 PWs)   bands (ev):

   -64.3210 -31.2718 -30.7325 -30.4707  16.9855  18.7264  22.2257  22.2856
    22.4447  25.3514  32.4312  41.9819

          k = 0.5000-0.6000 0.2000 (   614 PWs)   bands (ev):

   -64.3187 -31.1946 -30.7752 -30.5266  17.5715  18.7579  20.6912  22.2360
    22.5779  26.8200  33.1977  39.2625

          k = 0.5000-0.7000 0.3000 (   615 PWs)   bands (ev):

   -64.3179 -31.1288 -30.8187 -30.5581  18.1508  18.8562  19.6930  22.2165
    22.5673  27.3643  34.9946  36.4668

          k = 0.4000-0.6000 0.3000 (   616 PWs)   bands (ev):

   -64.3063 -31.0952 -30.9100 -30.5687  18.1823  18.9193  19.7715  22.3538
    22.5591  29.6301  32.4000  35.6081

          k = 0.0000 0.0000 0.3000 (   615 PWs)   bands (ev):

   -64.4392 -30.6675 -30.5622 -30.5622  15.2066  20.3417  20.3417  20.9305
    20.9757  22.6036  44.9372  47.6444

          k = 0.0000-0.1000 0.4000 (   613 PWs)   bands (ev):

   -64.3859 -30.8655 -30.6455 -30.5836  16.5448  19.9098  20.1231  20.9934
    21.8173  22.9841  41.7851  45.1203

          k = 0.0000-0.2000 0.5000 (   619 PWs)   bands (ev):

   -64.3323 -31.0866 -30.7279 -30.5791  17.4164  19.5688  19.7726  21.5418
    22.9896  24.0196  37.1206  43.6668

          k = 0.0000-0.3000 0.6000 (   621 PWs)   bands (ev):

   -64.2990 -31.2229 -30.7787 -30.5746  17.4111  19.5553  19.8454  21.6664
    23.8180  26.0856  33.2436  42.4563

          k =-0.1000-0.1000 0.5000 (   619 PWs)   bands (ev):

   -64.3347 -31.0062 -30.7453 -30.6259  17.5701  19.1668  20.3005  21.1841
    22.5563  24.0469  39.6702  40.6759

          k =-0.1000-0.2000 0.6000 (   616 PWs)   bands (ev):

   -64.2930 -31.1355 -30.8388 -30.6281  17.9271  18.8798  20.0279  21.6694
    23.2253  26.3577  35.4355  38.8543

          k =-0.1000 0.7000-0.3000 (   616 PWs)   bands (ev):

   -64.2770 -31.1863 -30.8752 -30.6264  17.8043  19.1123  19.7708  21.8059
    23.5840  28.4420  32.6109  38.2927

          k =-0.2000 0.8000-0.3000 (   612 PWs)   bands (ev):

   -64.2686 -31.1137 -30.9807 -30.6362  18.3712  18.4670  19.6652  22.3602
    23.0937  29.6022  33.5825  35.2955

          k =-0.3000 0.3000 0.3000 (   625 PWs)   bands (ev):

   -64.3567 -31.0879 -30.5996 -30.5996  17.9943  18.9373  18.9373  22.2643
    22.2643  24.8923  39.2885  39.2885

          k = 0.6000-0.6000 0.3000 (   619 PWs)   bands (ev):

   -64.3249 -31.1237 -30.7378 -30.6140  18.2992  18.7206  19.5979  22.3416
    22.4293  27.1559  35.3116  38.1298

          k = 0.5000-0.5000 0.3000 (   620 PWs)   bands (ev):

   -64.3128 -31.1147 -30.8138 -30.6195  18.1565  18.6546  20.1644  22.3933
    22.4751  29.0278  32.6369  37.7271

          k = 0.5000-0.6000 0.4000 (   618 PWs)   bands (ev):

   -64.3105 -31.0335 -30.8516 -30.6827  18.5158  18.9341  19.4502  22.4413
    22.4849  30.0591  33.6779  35.2896

          k = 0.0000 0.0000 0.5000 (   619 PWs)   bands (ev):

   -64.3376 -30.8915 -30.7327 -30.7327  17.4409  19.3635  20.8598  20.8598
    21.8978  23.8439  42.5872  42.8615

          k = 0.0000-0.1000 0.6000 (   612 PWs)   bands (ev):

   -64.2889 -31.0362 -30.8187 -30.7583  17.8923  18.5906  20.9088  21.3944
    22.8395  25.5807  38.1218  40.6348

          k = 0.0000-0.2000 0.7000 (   615 PWs)   bands (ev):

   -64.2587 -31.1501 -30.8722 -30.7483  17.7411  18.4233  20.7909  21.6363
    23.6961  28.3786  33.8135  39.2768

          k =-0.1000-0.1000 0.7000 (   617 PWs)   bands (ev):

   -64.2518 -31.0886 -30.9291 -30.7851  17.9129  17.9679  21.0141  22.1372
    23.2928  28.2188  36.2288  36.8993

          k =-0.1000 0.8000-0.2000 (   623 PWs)   bands (ev):

   -64.2376 -31.1089 -30.9835 -30.7828  17.7033  17.9236  20.9346  22.5258
    23.5142  31.0056  33.0613  36.0177

          k = 0.5000-0.5000 0.5000 (   604 PWs)   bands (ev):

   -64.3077 -30.8634 -30.8634 -30.8634  18.9927  18.9927  18.9927  22.4940
    22.4940  33.2273  33.2273  33.2273

          k = 0.0000 0.0000 0.7000 (   622 PWs)   bands (ev):

   -64.2454 -31.0119 -30.9096 -30.9096  17.6859  17.8351  22.0412  22.0412
    22.9043  27.6711  38.1327  38.1327

          k = 0.0000-0.1000 0.8000 (   629 PWs)   bands (ev):

   -64.2184 -31.0775 -30.9649 -30.9214  17.3592  17.4430  22.2794  22.5507
    23.5772  30.6406  34.7349  36.5908

          k =-0.1000 0.9000-0.1000 (   625 PWs)   bands (ev):

   -64.2055 -31.0454 -31.0454 -30.9326  17.1863  17.1863  22.4225  23.4223
    23.4223  33.5107  33.5107  34.5466

          k = 0.0000 0.0000 0.9000 (   630 PWs)   bands (ev):

   -64.1933 -31.0372 -31.0213 -31.0213  16.9367  16.9502  23.3840  23.3840
    23.5463  32.9968  34.8844  34.8844

 ------ SPIN DOWN ----------


          k = 0.0000 0.0000 0.1000 (   615 PWs)   bands (ev):

   -62.4439 -28.4453 -28.4282 -28.4282  13.8075  21.7229  21.7229  21.8140
    23.9718  24.1967  48.9333  49.9863

          k = 0.0000-0.1000 0.2000 (   621 PWs)   bands (ev):

   -62.4071 -28.6086 -28.4819 -28.4338  14.7472  21.4268  21.6410  22.4092
    23.6077  24.2977  46.2249  48.7639

          k = 0.0000-0.2000 0.3000 (   616 PWs)   bands (ev):

   -62.3471 -28.8753 -28.5675 -28.4341  16.3225  20.9311  21.3963  23.5024
    23.5209  24.4100  41.9810  46.4739

          k = 0.0000-0.3000 0.4000 (   619 PWs)   bands (ev):

   -62.2866 -29.1374 -28.6527 -28.4344  17.6206  20.4636  21.7396  23.7925
    24.5979  24.7390  37.5147  44.5138

          k = 0.0000-0.4000 0.5000 (   620 PWs)   bands (ev):

   -62.2490 -29.2966 -28.7052 -28.4346  17.9183  20.1874  22.8368  23.9648
    25.1463  25.6027  34.1605  43.4055

          k =-0.1000 0.1000 0.1000 (   621 PWs)   bands (ev):

   -62.4252 -28.5571 -28.4294 -28.4294  14.2869  21.5225  21.5225  22.2941
    24.0311  24.0311  47.9961  47.9962

          k =-0.1000-0.1000 0.3000 (   618 PWs)   bands (ev):

   -62.3593 -28.7903 -28.5430 -28.4716  16.0031  21.2809  21.3103  23.2124
    23.2296  24.5162  43.9532  45.6011

          k =-0.1000-0.2000 0.4000 (   619 PWs)   bands (ev):

   -62.3000 -29.0218 -28.6433 -28.4822  17.5440  20.7545  21.1245  23.3372
    24.3475  24.9159  39.9785  43.0986

          k =-0.1000-0.3000 0.5000 (   616 PWs)   bands (ev):

   -62.2516 -29.2062 -28.7300 -28.4839  18.3018  20.4389  21.5044  23.6950
    24.8222  26.3405  35.7763  41.6924

          k =-0.1000 0.6000-0.4000 (   612 PWs)   bands (ev):

   -62.2331 -29.2755 -28.7635 -28.4841  18.3502  20.3378  21.9096  23.7856
    25.1326  27.4435  33.6026  41.1710

          k =-0.2000 0.2000 0.1000 (   620 PWs)   bands (ev):

   -62.3761 -28.7757 -28.5016 -28.4324  15.6024  21.0510  21.2579  23.2606
    23.8124  24.1614  44.1758  46.2420

          k =-0.2000-0.2000 0.5000 (   617 PWs)   bands (ev):

   -62.2527 -29.1342 -28.7689 -28.5120  18.7380  20.2495  21.0629  23.5005
    24.6191  26.7117  37.9799  38.9226

          k =-0.2000 0.7000-0.4000 (   612 PWs)   bands (ev):

   -62.2233 -29.1793 -28.8795 -28.5205  19.1456  20.2591  20.9506  23.8400
    24.7152  29.1076  34.4155  37.5880

          k =-0.3000 0.3000 0.1000 (   622 PWs)   bands (ev):

   -62.3149 -29.0286 -28.6029 -28.4363  17.2119  20.5373  21.1702  23.8599
    24.3108  24.5664  39.7017  44.3429

          k =-0.3000 0.2000 0.2000 (   618 PWs)   bands (ev):

   -62.3257 -28.9744 -28.5587 -28.4745  17.0882  20.6824  20.7063  23.8278
    24.2986  24.6210  41.8121  42.8508

          k =-0.3000 0.7000-0.3000 (   616 PWs)   bands (ev):

   -62.2125 -29.0555 -29.0555 -28.5300  19.8097  20.2635  20.2635  24.3176
    24.3176  32.3303  32.3303  35.4557

          k =-0.4000 0.4000 0.1000 (   618 PWs)   bands (ev):

   -62.2651 -29.2268 -28.6866 -28.4392  17.9718  20.1590  22.1892  24.0368
    24.4420  25.8966  35.5928  42.9181

          k =-0.4000 0.3000 0.2000 (   623 PWs)   bands (ev):

   -62.2750 -29.1348 -28.6760 -28.4931  18.3987  20.2372  20.8224  23.9559
    24.4671  26.2961  37.8156  40.8632

          k = 0.5000-0.5000 0.1000 (   616 PWs)   bands (ev):

   -62.2459 -29.3015 -28.7188 -28.4403  18.0281  20.0213  23.1091  24.1033
    24.4971  26.6384  33.5996  42.3937

          k = 0.5000-0.6000 0.2000 (   614 PWs)   bands (ev):

   -62.2436 -29.2184 -28.7657 -28.5001  18.6266  20.0257  21.7132  24.1285
    24.5596  28.0374  34.2516  39.9122

          k = 0.5000-0.7000 0.3000 (   615 PWs)   bands (ev):

   -62.2427 -29.1473 -28.8135 -28.5336  19.2214  20.0831  20.7608  24.1144
    24.5408  28.6217  35.9337  37.2144

          k = 0.4000-0.6000 0.3000 (   616 PWs)   bands (ev):

   -62.2303 -29.1112 -28.9116 -28.5450  19.3253  20.1204  20.8878  24.2657
    24.5025  30.7001  33.4410  36.3857

          k = 0.0000 0.0000 0.3000 (   615 PWs)   bands (ev):

   -62.3722 -28.6530 -28.5371 -28.5371  15.6209  21.7656  21.7656  22.4287
    22.7830  24.6251  45.5166  48.2427

          k = 0.0000-0.1000 0.4000 (   613 PWs)   bands (ev):

   -62.3154 -28.8653 -28.6260 -28.5606  17.0608  21.3986  21.5224  22.6011
    23.3651  24.9326  42.5615  45.6684

          k = 0.0000-0.2000 0.5000 (   619 PWs)   bands (ev):

   -62.2583 -29.1022 -28.7139 -28.5561  18.2617  20.9095  21.1395  23.1668
    24.6205  25.6438  38.0292  44.1992

          k = 0.0000-0.3000 0.6000 (   621 PWs)   bands (ev):

   -62.2228 -29.2481 -28.7680 -28.5514  18.5158  20.9027  21.1318  23.3575
    25.5203  27.2737  34.3177  43.1252

          k =-0.1000-0.1000 0.5000 (   619 PWs)   bands (ev):

   -62.2609 -29.0159 -28.7330 -28.6057  18.3050  20.6351  21.6721  22.7413
    24.1996  25.6987  40.5573  41.3603

          k =-0.1000-0.2000 0.6000 (   616 PWs)   bands (ev):

   -62.2164 -29.1539 -28.8333 -28.6081  19.0101  20.2032  21.3940  23.2728
    24.9089  27.6456  36.3790  39.6017

          k =-0.1000 0.7000-0.3000 (   616 PWs)   bands (ev):

   -62.1994 -29.2081 -28.8722 -28.6063  19.0154  20.4055  21.1194  23.4296
    25.2774  29.5176  33.6779  39.0289

          k =-0.2000 0.8000-0.3000 (   612 PWs)   bands (ev):

   -62.1905 -29.1298 -28.9861 -28.6164  19.6963  19.7039  20.9803  23.9844
    24.7660  30.6991  34.5906  36.0691

          k =-0.3000 0.3000 0.3000 (   625 PWs)   bands (ev):

   -62.2839 -29.1033 -28.5782 -28.5782  18.5950  20.2182  20.2182  24.2457
    24.2457  26.3543  40.0405  40.0405

          k = 0.6000-0.6000 0.3000 (   619 PWs)   bands (ev):

   -62.2501 -29.1420 -28.7266 -28.5940  19.3291  19.9558  20.5958  24.3143
    24.4667  28.4315  36.2014  38.8747

          k = 0.5000-0.5000 0.3000 (   620 PWs)   bands (ev):

   -62.2371 -29.1324 -28.8081 -28.6001  19.2490  19.8736  21.1929  24.3645
    24.5330  30.0907  33.6790  38.4665

          k = 0.5000-0.6000 0.4000 (   618 PWs)   bands (ev):

   -62.2347 -29.0451 -28.8494 -28.6679  19.6697  20.0873  20.5042  24.4567
    24.5273  31.1292  34.6098  36.0934

          k = 0.0000 0.0000 0.5000 (   619 PWs)   bands (ev):

   -62.2640 -28.8939 -28.7192 -28.7192  18.1297  20.9516  22.2798  22.2798
    23.4600  25.5766  43.4468  43.5899

          k = 0.0000-0.1000 0.6000 (   612 PWs)   bands (ev):

   -62.2122 -29.0476 -28.8112 -28.7474  18.8916  20.0437  22.3337  22.8813
    24.4598  26.9292  38.9652  41.3414

          k = 0.0000-0.2000 0.7000 (   615 PWs)   bands (ev):

   -62.1801 -29.1688 -28.8683 -28.7371  19.0040  19.7364  22.2084  23.1521
    25.3886  29.4311  34.7634  39.9383

          k =-0.1000-0.1000 0.7000 (   617 PWs)   bands (ev):

   -62.1727 -29.1026 -28.9298 -28.7758  19.1183  19.3626  22.4326  23.6642
    24.9484  29.2892  37.1058  37.6083

          k =-0.1000 0.8000-0.2000 (   623 PWs)   bands (ev):

   -62.1576 -29.1237 -28.9883 -28.7731  19.0359  19.2402  22.3280  24.0916
    25.1845  31.9405  33.9721  36.7448

          k = 0.5000-0.5000 0.5000 (   604 PWs)   bands (ev):

   -62.2316 -28.8624 -28.8624 -28.8624  20.1167  20.1167  20.1167  24.5553
    24.5553  34.1542  34.1542  34.1543

          k = 0.0000 0.0000 0.7000 (   622 PWs)   bands (ev):

   -62.1660 -29.0210 -28.9083 -28.9083  18.8778  19.2531  23.5320  23.5320
    24.5389  28.7149  38.7986  38.7986

          k = 0.0000-0.1000 0.8000 (   629 PWs)   bands (ev):

   -62.1373 -29.0895 -28.9675 -28.9215  18.6877  18.7674  23.8083  24.0853
    25.2606  31.4833  35.4667  37.1913

          k =-0.1000 0.9000-0.1000 (   625 PWs)   bands (ev):

   -62.1237 -29.0543 -29.0543 -28.9331  18.5151  18.5151  23.9514  25.0765
    25.0765  34.2221  34.2221  35.1566

          k = 0.0000 0.0000 0.9000 (   630 PWs)   bands (ev):

   -62.1107 -29.0452 -29.0280 -29.0280  18.2665  18.2695  25.0323  25.0323
    25.2303  33.6034  35.3881  35.3881

     the Fermi energy is    23.1042 ev

!    total energy              =    -254.22785209 Ry
     estimated scf accuracy    <          5.1E-10 Ry
     smearing contrib. (-TS)   =      -0.00030782 Ry
     internal energy E=F+TS    =    -254.22754427 Ry

     The total energy is F=E-TS. E is the sum of the following terms:
     one-electron contribution =     -91.76449998 Ry
     hartree contribution      =      58.47062025 Ry
     xc contribution           =     -34.60491194 Ry
     ewald contribution        =    -186.32875261 Ry

     total magnetization       =     1.77 Bohr mag/cell
     absolute magnetization    =     1.80 Bohr mag/cell

     convergence has been achieved in  10 iterations

     Writing output data file ./tempdir/fe.save/

     init_run     :      0.62s CPU      0.64s WALL (       1 calls)
     electrons    :      5.65s CPU      5.86s WALL (       1 calls)

     Called by init_run:
     wfcinit      :      0.15s CPU      0.16s WALL (       1 calls)
     potinit      :      0.03s CPU      0.03s WALL (       1 calls)
     hinit0       :      0.40s CPU      0.40s WALL (       1 calls)

     Called by electrons:
     c_bands      :      3.49s CPU      3.53s WALL (      10 calls)
     sum_band     :      1.46s CPU      1.56s WALL (      10 calls)
     v_of_rho     :      0.17s CPU      0.17s WALL (      11 calls)
     newd         :      0.48s CPU      0.55s WALL (      11 calls)
     mix_rho      :      0.05s CPU      0.05s WALL (      10 calls)

     Called by c_bands:
     init_us_2    :      0.10s CPU      0.10s WALL (     924 calls)
     cegterg      :      3.08s CPU      3.12s WALL (     440 calls)

     Called by *egterg:
     cdiaghg      :      0.16s CPU      0.16s WALL (    1590 calls)
     h_psi        :      2.74s CPU      2.78s WALL (    1634 calls)
     s_psi        :      0.04s CPU      0.04s WALL (    1634 calls)
     g_psi        :      0.02s CPU      0.02s WALL (    1150 calls)

     Called by h_psi:
     h_psi:calbec :      0.06s CPU      0.06s WALL (    1634 calls)
     vloc_psi     :      2.62s CPU      2.66s WALL (    1634 calls)
     add_vuspsi   :      0.05s CPU      0.05s WALL (    1634 calls)

     General routines
     calbec       :      0.08s CPU      0.08s WALL (    2074 calls)
     fft          :      0.14s CPU      0.14s WALL (     115 calls)
     ffts         :      0.01s CPU      0.01s WALL (      42 calls)
     fftw         :      2.81s CPU      2.85s WALL (   32300 calls)
     interpolate  :      0.03s CPU      0.04s WALL (      22 calls)

     Parallel routines

     PWSCF        :      6.35s CPU      6.59s WALL


   This run was terminated on:  22: 1: 1  18Apr2021            

=------------------------------------------------------------------------------=
   JOB DONE.
=------------------------------------------------------------------------------=
