
     Program PWSCF v.6.7GPU starts on 18Apr2021 at 22: 1:11 

     This program is part of the open-source Quantum ESPRESSO suite
     for quantum simulation of materials; please cite
         "P. Giannozzi et al., J. Phys.:Condens. Matter 21 395502 (2009);
         "P. Giannozzi et al., J. Phys.:Condens. Matter 29 465901 (2017);
         "P. Giannozzi et al., J. Chem. Phys. 152 154105 (2020);
          URL http://www.quantum-espresso.org", 
     in publications or presentations arising from this work. More details at
     http://www.quantum-espresso.org/quote

     Parallel version (MPI & OpenMP), running on       2 processor cores
     Number of MPI processes:                 2
     Threads/MPI process:                     1

     MPI processes distributed on     1 nodes
     K-points division:     npool     =       2
     Waiting for input...
     Reading input from standard input

     Current dimensions of program PWSCF are:
     Max number of different atomic species (ntypx) = 10
     Max number of k-points (npk) =  40000
     Max angular momentum in pseudopotentials (lmaxx) =  3

     Subspace diagonalization in iterative solution of the eigenvalue problem:
     a serial algorithm will be used


     G-vector sticks info
     --------------------
     sticks:   dense  smooth     PW     G-vecs:    dense   smooth      PW
     Sum        1291     415    129                29389     5473     959

     Using Slab Decomposition



     bravais-lattice index     =            3
     lattice parameter (alat)  =       5.2000  a.u.
     unit-cell volume          =      70.3040 (a.u.)^3
     number of atoms/cell      =            1
     number of atomic types    =            1
     number of electrons       =        16.00
     number of Kohn-Sham states=           12
     kinetic-energy cutoff     =      70.0000  Ry
     charge density cutoff     =     850.0000  Ry
     scf convergence threshold =      1.0E-08
     mixing beta               =       0.7000
     number of iterations used =            8  plain     mixing
     Exchange-correlation= LDA
                           (   1   1   0   0   0   0   0)

     celldm(1)=   5.200000  celldm(2)=   0.000000  celldm(3)=   0.000000
     celldm(4)=   0.000000  celldm(5)=   0.000000  celldm(6)=   0.000000

     crystal axes: (cart. coord. in units of alat)
               a(1) = (   0.500000   0.500000   0.500000 )  
               a(2) = (  -0.500000   0.500000   0.500000 )  
               a(3) = (  -0.500000  -0.500000   0.500000 )  

     reciprocal axes: (cart. coord. in units 2 pi/alat)
               b(1) = (  1.000000  0.000000  1.000000 )  
               b(2) = ( -1.000000  1.000000  0.000000 )  
               b(3) = (  0.000000 -1.000000  1.000000 )  


     PseudoPot. # 1 for Fe read from file:
     /home/pietro/repositories/materials-for-max-qe2021-online-school/pseudo/Fe.pz-spn-rrkjus_psl.0.2.1.UPF
     MD5 check sum: 3cbc4c6ff80f64c0ae98e6ac432cb3b7
     Pseudo is Ultrasoft + core correction, Zval = 16.0
     Generated using "atomic" code by A. Dal Corso  v.5.0.2 svn rev. 9415
     Using radial grid of 1191 points,  6 beta functions with: 
                l(1) =   0
                l(2) =   0
                l(3) =   1
                l(4) =   1
                l(5) =   2
                l(6) =   2
     Q(r) pseudized with 0 coefficients 


     atomic species   valence    mass     pseudopotential
        Fe            16.00    55.84500     Fe( 1.00)

     Starting magnetic structure 
     atomic species   magnetization
        Fe           0.700

     48 Sym. Ops., with inversion, found



   Cartesian axes

     site n.     atom                  positions (alat units)
         1           Fe  tau(   1) = (   0.0000000   0.0000000   0.0000000  )

     number of k points=    44  Marzari-Vanderbilt smearing, width (Ry)=  0.0200
                       cart. coord. in units 2pi/alat
        k(    1) = (   0.0000000   0.0000000   0.1000000), wk =   0.0060000
        k(    2) = (   0.0000000  -0.1000000   0.2000000), wk =   0.0240000
        k(    3) = (   0.0000000  -0.2000000   0.3000000), wk =   0.0240000
        k(    4) = (   0.0000000  -0.3000000   0.4000000), wk =   0.0240000
        k(    5) = (   0.0000000  -0.4000000   0.5000000), wk =   0.0240000
        k(    6) = (  -0.1000000   0.1000000   0.1000000), wk =   0.0080000
        k(    7) = (  -0.1000000  -0.1000000   0.3000000), wk =   0.0240000
        k(    8) = (  -0.1000000  -0.2000000   0.4000000), wk =   0.0480000
        k(    9) = (  -0.1000000  -0.3000000   0.5000000), wk =   0.0480000
        k(   10) = (  -0.1000000   0.6000000  -0.4000000), wk =   0.0240000
        k(   11) = (  -0.2000000   0.2000000   0.1000000), wk =   0.0240000
        k(   12) = (  -0.2000000  -0.2000000   0.5000000), wk =   0.0240000
        k(   13) = (  -0.2000000   0.7000000  -0.4000000), wk =   0.0480000
        k(   14) = (  -0.3000000   0.3000000   0.1000000), wk =   0.0240000
        k(   15) = (  -0.3000000   0.2000000   0.2000000), wk =   0.0240000
        k(   16) = (  -0.3000000   0.7000000  -0.3000000), wk =   0.0080000
        k(   17) = (  -0.4000000   0.4000000   0.1000000), wk =   0.0240000
        k(   18) = (  -0.4000000   0.3000000   0.2000000), wk =   0.0480000
        k(   19) = (   0.5000000  -0.5000000   0.1000000), wk =   0.0120000
        k(   20) = (   0.5000000  -0.6000000   0.2000000), wk =   0.0480000
        k(   21) = (   0.5000000  -0.7000000   0.3000000), wk =   0.0240000
        k(   22) = (   0.4000000  -0.6000000   0.3000000), wk =   0.0240000
        k(   23) = (   0.0000000   0.0000000   0.3000000), wk =   0.0060000
        k(   24) = (   0.0000000  -0.1000000   0.4000000), wk =   0.0240000
        k(   25) = (   0.0000000  -0.2000000   0.5000000), wk =   0.0240000
        k(   26) = (   0.0000000  -0.3000000   0.6000000), wk =   0.0240000
        k(   27) = (  -0.1000000  -0.1000000   0.5000000), wk =   0.0240000
        k(   28) = (  -0.1000000  -0.2000000   0.6000000), wk =   0.0480000
        k(   29) = (  -0.1000000   0.7000000  -0.3000000), wk =   0.0240000
        k(   30) = (  -0.2000000   0.8000000  -0.3000000), wk =   0.0240000
        k(   31) = (  -0.3000000   0.3000000   0.3000000), wk =   0.0080000
        k(   32) = (   0.6000000  -0.6000000   0.3000000), wk =   0.0240000
        k(   33) = (   0.5000000  -0.5000000   0.3000000), wk =   0.0120000
        k(   34) = (   0.5000000  -0.6000000   0.4000000), wk =   0.0240000
        k(   35) = (   0.0000000   0.0000000   0.5000000), wk =   0.0060000
        k(   36) = (   0.0000000  -0.1000000   0.6000000), wk =   0.0240000
        k(   37) = (   0.0000000  -0.2000000   0.7000000), wk =   0.0240000
        k(   38) = (  -0.1000000  -0.1000000   0.7000000), wk =   0.0240000
        k(   39) = (  -0.1000000   0.8000000  -0.2000000), wk =   0.0240000
        k(   40) = (   0.5000000  -0.5000000   0.5000000), wk =   0.0020000
        k(   41) = (   0.0000000   0.0000000   0.7000000), wk =   0.0060000
        k(   42) = (   0.0000000  -0.1000000   0.8000000), wk =   0.0240000
        k(   43) = (  -0.1000000   0.9000000  -0.1000000), wk =   0.0080000
        k(   44) = (   0.0000000   0.0000000   0.9000000), wk =   0.0060000

     Dense  grid:    29389 G-vectors     FFT dimensions: (  45,  45,  45)

     Smooth grid:     5473 G-vectors     FFT dimensions: (  24,  24,  24)

     Estimated max dynamical RAM per process >      81.60 MB

     Estimated total dynamical RAM >     148.84 MB

     Check: negative core charge=   -0.000011
     Generating pointlists ...
     new r_m :   0.3572 (alat units)  1.8576 (a.u.) for type    1

     Initial potential from superposition of free atoms

     starting charge   15.99965, renormalised to   16.00000
     Starting wfcs are   13 randomized atomic wfcs

     total cpu time spent up to now is        0.7 secs

     Self-consistent Calculation

     iteration #  1     ecut=    70.00 Ry     beta= 0.70
     Davidson diagonalization with overlap
     ethr =  1.00E-02,  avg # of iterations =  3.3

     negative rho (up, down):  0.000E+00 5.301E-05

     total cpu time spent up to now is        1.4 secs

     total energy              =    -253.94234187 Ry
     estimated scf accuracy    <       1.55755006 Ry

     total magnetization       =     3.71 Bohr mag/cell
     absolute magnetization    =     3.74 Bohr mag/cell

     iteration #  2     ecut=    70.00 Ry     beta= 0.70
     Davidson diagonalization with overlap
     ethr =  9.73E-03,  avg # of iterations =  1.2

     negative rho (up, down):  0.000E+00 5.727E-05

     total cpu time spent up to now is        2.0 secs

     total energy              =    -254.13638950 Ry
     estimated scf accuracy    <       0.33594360 Ry

     total magnetization       =     2.96 Bohr mag/cell
     absolute magnetization    =     3.02 Bohr mag/cell

     iteration #  3     ecut=    70.00 Ry     beta= 0.70
     Davidson diagonalization with overlap
     ethr =  2.10E-03,  avg # of iterations =  2.1

     negative rho (up, down):  0.000E+00 5.565E-05

     total cpu time spent up to now is        2.7 secs

     total energy              =    -254.16772889 Ry
     estimated scf accuracy    <       0.44480620 Ry

     total magnetization       =     2.25 Bohr mag/cell
     absolute magnetization    =     2.31 Bohr mag/cell

     iteration #  4     ecut=    70.00 Ry     beta= 0.70
     Davidson diagonalization with overlap
     ethr =  2.10E-03,  avg # of iterations =  2.0

     negative rho (up, down):  0.000E+00 3.285E-05

     total cpu time spent up to now is        3.3 secs

     total energy              =    -254.23447902 Ry
     estimated scf accuracy    <       0.00360415 Ry

     total magnetization       =     2.10 Bohr mag/cell
     absolute magnetization    =     2.17 Bohr mag/cell

     iteration #  5     ecut=    70.00 Ry     beta= 0.70
     Davidson diagonalization with overlap
     ethr =  2.25E-05,  avg # of iterations =  4.7

     negative rho (up, down):  0.000E+00 2.491E-05

     total cpu time spent up to now is        4.0 secs

     total energy              =    -254.23739692 Ry
     estimated scf accuracy    <       0.00075901 Ry

     total magnetization       =     1.98 Bohr mag/cell
     absolute magnetization    =     2.03 Bohr mag/cell

     iteration #  6     ecut=    70.00 Ry     beta= 0.70
     Davidson diagonalization with overlap
     ethr =  4.74E-06,  avg # of iterations =  2.1

     negative rho (up, down):  0.000E+00 2.202E-05

     total cpu time spent up to now is        4.7 secs

     total energy              =    -254.23763752 Ry
     estimated scf accuracy    <       0.00036409 Ry

     total magnetization       =     1.94 Bohr mag/cell
     absolute magnetization    =     1.99 Bohr mag/cell

     iteration #  7     ecut=    70.00 Ry     beta= 0.70
     Davidson diagonalization with overlap
     ethr =  2.28E-06,  avg # of iterations =  1.8

     negative rho (up, down):  0.000E+00 2.245E-05

     total cpu time spent up to now is        5.3 secs

     total energy              =    -254.23771298 Ry
     estimated scf accuracy    <       0.00000424 Ry

     total magnetization       =     1.94 Bohr mag/cell
     absolute magnetization    =     1.98 Bohr mag/cell

     iteration #  8     ecut=    70.00 Ry     beta= 0.70
     Davidson diagonalization with overlap
     ethr =  2.65E-08,  avg # of iterations =  4.0

     negative rho (up, down):  0.000E+00 2.250E-05

     total cpu time spent up to now is        6.0 secs

     total energy              =    -254.23771601 Ry
     estimated scf accuracy    <       0.00000020 Ry

     total magnetization       =     1.94 Bohr mag/cell
     absolute magnetization    =     1.99 Bohr mag/cell

     iteration #  9     ecut=    70.00 Ry     beta= 0.70
     Davidson diagonalization with overlap
     ethr =  1.24E-09,  avg # of iterations =  3.0

     negative rho (up, down):  0.000E+00 2.253E-05

     total cpu time spent up to now is        6.7 secs

     total energy              =    -254.23771608 Ry
     estimated scf accuracy    <       0.00000029 Ry

     total magnetization       =     1.94 Bohr mag/cell
     absolute magnetization    =     1.99 Bohr mag/cell

     iteration # 10     ecut=    70.00 Ry     beta= 0.70
     Davidson diagonalization with overlap
     ethr =  1.24E-09,  avg # of iterations =  2.0

     negative rho (up, down):  0.000E+00 2.256E-05

     Magnetic moment per site  (integrated on atomic sphere of radius R)
     atom   1 (R=0.357)  charge= 14.3325  magn=  1.9442

     total cpu time spent up to now is        7.3 secs

     End of self-consistent calculation

 ------ SPIN UP ------------


          k = 0.0000 0.0000 0.1000 (   679 PWs)   bands (ev):

   -67.4126 -33.5275 -33.5177 -33.5177  11.0348  17.4991  17.4991  17.5672
    18.9367  19.0934  44.3840  45.4410

          k = 0.0000-0.1000 0.2000 (   686 PWs)   bands (ev):

   -67.3912 -33.6302 -33.5527 -33.5204  11.8833  17.2784  17.4515  18.0428
    18.6917  19.1681  41.2511  43.9447

          k = 0.0000-0.2000 0.3000 (   688 PWs)   bands (ev):

   -67.3564 -33.7983 -33.6086 -33.5201  13.3039  16.9035  17.3130  18.6818
    18.9089  19.2568  36.7008  41.7278

          k = 0.0000-0.3000 0.4000 (   686 PWs)   bands (ev):

   -67.3215 -33.9639 -33.6639 -33.5197  14.3864  16.5451  17.8026  18.9535
    19.4866  19.8763  32.1595  39.9332

          k = 0.0000-0.4000 0.5000 (   695 PWs)   bands (ev):

   -67.2998 -34.0659 -33.6982 -33.5196  14.5631  16.3314  18.6123  19.0455
    20.5412  20.5839  28.6965  38.9452

          k =-0.1000 0.1000 0.1000 (   679 PWs)   bands (ev):

   -67.4017 -33.5980 -33.5180 -33.5180  11.4676  17.3480  17.3480  17.9518
    18.9808  18.9808  43.1644  43.1644

          k =-0.1000-0.1000 0.3000 (   684 PWs)   bands (ev):

   -67.3635 -33.7446 -33.5917 -33.5445  13.0184  17.1884  17.1889  18.4552
    18.6919  19.3412  38.8377  40.3019

          k =-0.1000-0.2000 0.4000 (   692 PWs)   bands (ev):

   -67.3291 -33.8914 -33.6566 -33.5512  14.3674  16.7651  17.1246  18.5977
    19.3957  19.9464  34.6739  37.9036

          k =-0.1000-0.3000 0.5000 (   690 PWs)   bands (ev):

   -67.3012 -34.0086 -33.7125 -33.5521  14.9044  16.5355  17.5217  18.8800
    19.7989  21.4656  30.4286  36.5922

          k =-0.1000 0.6000-0.4000 (   703 PWs)   bands (ev):

   -67.2905 -34.0537 -33.7346 -33.5527  14.9025  16.4594  17.8154  18.9223
    20.1326  22.7401  28.1502  36.1137

          k =-0.2000 0.2000 0.1000 (   686 PWs)   bands (ev):

   -67.3732 -33.7360 -33.5646 -33.5196  12.6582  16.9927  17.1633  18.7305
    18.8509  19.0731  39.0263  41.2900

          k =-0.2000-0.2000 0.5000 (   701 PWs)   bands (ev):

   -67.3017 -33.9638 -33.7358 -33.5716  15.3204  16.3626  17.1151  18.7445
    19.5661  21.7648  32.7326  33.6619

          k =-0.2000 0.7000-0.4000 (   704 PWs)   bands (ev):

   -67.2848 -33.9932 -33.8056 -33.5779  15.5556  16.4049  17.0154  19.0070
    19.7197  24.1884  29.1547  32.4077

          k =-0.3000 0.3000 0.1000 (   685 PWs)   bands (ev):

   -67.3379 -33.8953 -33.6305 -33.5208  14.0816  16.6024  17.2218  18.9209
    19.1721  19.8060  34.4022  39.5087

          k =-0.3000 0.2000 0.2000 (   687 PWs)   bands (ev):

   -67.3441 -33.8620 -33.6007 -33.5458  13.9942  16.7181  16.7543  18.8741
    19.1815  19.8658  36.6621  37.6682

          k =-0.3000 0.7000-0.3000 (   715 PWs)   bands (ev):

   -67.2785 -33.9160 -33.9160 -33.5850  16.0815  16.4236  16.4236  19.4023
    19.4023  27.2980  27.2980  30.1854

          k =-0.4000 0.4000 0.1000 (   697 PWs)   bands (ev):

   -67.3092 -34.0216 -33.6854 -33.5225  14.6383  16.3121  18.3585  19.0805
    19.2546  21.0245  30.2223  38.2452

          k =-0.4000 0.3000 0.2000 (   693 PWs)   bands (ev):

   -67.3150 -33.9632 -33.6758 -33.5573  15.0608  16.3845  16.9939  18.9892
    19.3040  21.3859  32.5676  35.7495

          k = 0.5000-0.5000 0.1000 (   696 PWs)   bands (ev):

   -67.2982 -34.0689 -33.7065 -33.5228  14.6499  16.2058  19.1136  19.2192
    19.2884  21.9106  28.1082  37.7904

          k = 0.5000-0.6000 0.2000 (   698 PWs)   bands (ev):

   -67.2969 -34.0164 -33.7340 -33.5614  15.1525  16.2267  17.8231  19.1250
    19.4047  23.2056  28.9142  34.8743

          k = 0.5000-0.7000 0.3000 (   698 PWs)   bands (ev):

   -67.2964 -33.9720 -33.7616 -33.5837  15.6568  16.2930  16.9653  19.1118
    19.3944  23.6573  30.8117  31.9903

          k = 0.4000-0.6000 0.3000 (   704 PWs)   bands (ev):

   -67.2894 -33.9490 -33.8237 -33.5915  15.7079  16.3415  17.0446  19.2236
    19.3926  25.8060  28.2624  31.2075

          k = 0.0000 0.0000 0.3000 (   695 PWs)   bands (ev):

   -67.3709 -33.6560 -33.5888 -33.5888  12.6710  17.5624  17.5624  18.0586
    18.1004  19.4210  40.6582  42.7592

          k = 0.0000-0.1000 0.4000 (   689 PWs)   bands (ev):

   -67.3378 -33.7914 -33.6461 -33.6023  13.9554  17.2077  17.3817  18.1100
    18.8044  19.7299  37.2663  40.6288

          k = 0.0000-0.2000 0.5000 (   695 PWs)   bands (ev):

   -67.3047 -33.9429 -33.7030 -33.5990  14.9165  16.8909  17.0884  18.5645
    19.7869  20.6324  32.6828  38.7926

          k = 0.0000-0.3000 0.6000 (   703 PWs)   bands (ev):

   -67.2841 -34.0366 -33.7383 -33.5961  15.0264  16.9056  17.1161  18.6629
    20.4782  22.5554  28.9309  37.6647

          k =-0.1000-0.1000 0.5000 (   706 PWs)   bands (ev):

   -67.3061 -33.8885 -33.7148 -33.6324  14.9917  16.5883  17.5271  18.2714
    19.4179  20.6468  35.2143  36.0109

          k =-0.1000-0.2000 0.6000 (   700 PWs)   bands (ev):

   -67.2802 -33.9774 -33.7786 -33.6341  15.4503  16.3124  17.2995  18.6742
    19.9767  22.7380  31.0872  34.3431

          k =-0.1000 0.7000-0.3000 (   707 PWs)   bands (ev):

   -67.2704 -34.0131 -33.8036 -33.6331  15.3905  16.5002  17.0840  18.7849
    20.2803  24.7159  28.3491  33.8247

          k =-0.2000 0.8000-0.3000 (   700 PWs)   bands (ev):

   -67.2651 -33.9645 -33.8742 -33.6402  15.8944  15.9458  16.9888  19.2545
    19.8669  25.7267  29.4363  30.8738

          k =-0.3000 0.3000 0.3000 (   697 PWs)   bands (ev):

   -67.3203 -33.9436 -33.6119 -33.6119  15.3195  16.3778  16.3778  19.1459
    19.1459  21.4219  34.9541  34.9541

          k = 0.6000-0.6000 0.3000 (   696 PWs)   bands (ev):

   -67.3009 -33.9683 -33.7063 -33.6202  15.7690  16.1895  16.8687  19.2086
    19.2770  23.4628  31.0392  33.8662

          k = 0.5000-0.5000 0.3000 (   702 PWs)   bands (ev):

   -67.2935 -33.9618 -33.7588 -33.6238  15.6661  16.1316  17.3752  19.2505
    19.3128  25.2603  28.4086  33.4907

          k = 0.5000-0.6000 0.4000 (   695 PWs)   bands (ev):

   -67.2922 -33.9066 -33.7824 -33.6671  15.9969  16.3477  16.7630  19.2883
    19.3219  26.1677  29.5901  30.9272

          k = 0.0000 0.0000 0.5000 (   703 PWs)   bands (ev):

   -67.3077 -33.8088 -33.7065 -33.7065  14.8496  16.7634  18.0006  18.0006
    18.8752  20.4550  38.0505  38.0507

          k = 0.0000-0.1000 0.6000 (   698 PWs)   bands (ev):

   -67.2774 -33.9099 -33.7660 -33.7233  15.3788  16.1019  18.0443  18.4488
    19.6633  22.0138  33.6470  35.9757

          k = 0.0000-0.2000 0.7000 (   700 PWs)   bands (ev):

   -67.2587 -33.9892 -33.8025 -33.7166  15.3491  15.9250  17.9464  18.6468
    20.3772  24.6217  29.5398  34.7388

          k =-0.1000-0.1000 0.7000 (   693 PWs)   bands (ev):

   -67.2542 -33.9473 -33.8408 -33.7422  15.4667  15.5748  18.1311  19.0747
    20.0399  24.4460  31.9103  32.4695

          k =-0.1000 0.8000-0.2000 (   695 PWs)   bands (ev):

   -67.2453 -33.9620 -33.8777 -33.7408  15.3365  15.5117  18.0631  19.3989
    20.2253  27.0819  28.8737  31.6774

          k = 0.5000-0.5000 0.5000 (   688 PWs)   bands (ev):

   -67.2906 -33.7902 -33.7902 -33.7902  16.3930  16.3930  16.3930  19.3280
    19.3280  29.1716  29.1716  29.1717

          k = 0.0000 0.0000 0.7000 (   699 PWs)   bands (ev):

   -67.2501 -33.8942 -33.8284 -33.8284  15.2697  15.4717  18.9961  18.9961
    19.7185  23.9436  33.6847  33.6847

          k = 0.0000-0.1000 0.8000 (   699 PWs)   bands (ev):

   -67.2331 -33.9416 -33.8663 -33.8358  15.0516  15.1132  19.1971  19.4224
    20.2785  26.7296  30.5194  32.2963

          k =-0.1000 0.9000-0.1000 (   697 PWs)   bands (ev):

   -67.2251 -33.9209 -33.9209 -33.8443  14.9060  14.9060  19.3165  20.1502
    20.1502  29.4444  29.4444  30.3448

          k = 0.0000 0.0000 0.9000 (   691 PWs)   bands (ev):

   -67.2173 -33.9154 -33.9050 -33.9050  14.7026  14.7064  20.1187  20.1187
    20.2527  28.9868  30.7733  30.7733

 ------ SPIN DOWN ----------


          k = 0.0000 0.0000 0.1000 (   679 PWs)   bands (ev):

   -65.1532 -31.3112 -31.3002 -31.3002  11.4087  19.0962  19.0962  19.1749
    21.0612  21.2481  44.6454  45.6529

          k = 0.0000-0.1000 0.2000 (   686 PWs)   bands (ev):

   -65.1301 -31.4231 -31.3379 -31.3034  12.2688  18.8451  19.0252  19.6828
    20.7547  21.3309  41.7935  44.3029

          k = 0.0000-0.2000 0.3000 (   688 PWs)   bands (ev):

   -65.0926 -31.6064 -31.3982 -31.3032  13.7621  18.4223  18.7913  20.6158
    20.6693  21.4204  37.4765  42.1056

          k = 0.0000-0.3000 0.4000 (   686 PWs)   bands (ev):

   -65.0550 -31.7865 -31.4579 -31.3029  15.1781  18.0213  18.9639  20.8829
    21.5654  21.6703  33.1173  40.2830

          k = 0.0000-0.4000 0.5000 (   695 PWs)   bands (ev):

   -65.0316 -31.8973 -31.4948 -31.3029  15.6618  17.7834  19.8903  21.0251
    21.9906  22.4055  29.8810  39.2667

          k =-0.1000 0.1000 0.1000 (   679 PWs)   bands (ev):

   -65.1415 -31.3879 -31.3007 -31.3007  11.8461  18.9266  18.9266  19.5822
    21.1098  21.1098  43.5784  43.5784

          k =-0.1000-0.1000 0.3000 (   684 PWs)   bands (ev):

   -65.1003 -31.5478 -31.3802 -31.3295  13.4412  18.7145  18.7484  20.3647
    20.4303  21.5065  39.5274  40.9087

          k =-0.1000-0.2000 0.4000 (   692 PWs)   bands (ev):

   -65.0632 -31.7075 -31.4504 -31.3368  14.9719  18.2677  18.5435  20.5068
    21.3428  21.8132  35.5250  38.5566

          k =-0.1000-0.3000 0.5000 (   690 PWs)   bands (ev):

   -65.0331 -31.8348 -31.5108 -31.3379  15.9291  17.9914  18.7797  20.8001
    21.7434  23.0089  31.4570  37.2412

          k =-0.1000 0.6000-0.4000 (   703 PWs)   bands (ev):

   -65.0216 -31.8837 -31.5346 -31.3385  16.0746  17.9059  19.1300  20.8761
    22.0025  23.9858  29.3598  36.7517

          k =-0.2000 0.2000 0.1000 (   686 PWs)   bands (ev):

   -65.1108 -31.5383 -31.3510 -31.3025  13.0642  18.5249  18.6966  20.4028
    20.9207  21.2174  39.6883  41.7935

          k =-0.2000-0.2000 0.5000 (   701 PWs)   bands (ev):

   -65.0337 -31.7859 -31.5367 -31.3586  16.2230  17.8190  18.4696  20.6400
    21.5761  23.3213  33.6823  34.3998

          k =-0.2000 0.7000-0.4000 (   704 PWs)   bands (ev):

   -65.0155 -31.8176 -31.6127 -31.3653  16.7678  17.8067  18.3418  20.9225
    21.6544  25.4488  30.2174  33.1966

          k =-0.3000 0.3000 0.1000 (   685 PWs)   bands (ev):

   -65.0727 -31.7118 -31.4221 -31.3041  14.6581  18.0836  18.5530  20.9503
    21.3406  21.5111  35.2540  40.0004

          k =-0.3000 0.2000 0.2000 (   687 PWs)   bands (ev):

   -65.0794 -31.6753 -31.3903 -31.3310  14.4747  18.2028  18.2163  20.9302
    21.3255  21.5524  37.4156  38.3302

          k =-0.3000 0.7000-0.3000 (   715 PWs)   bands (ev):

   -65.0087 -31.7331 -31.7331 -31.3728  17.4095  17.7662  17.7662  21.3227
    21.3227  28.4002  28.4002  31.0438

          k =-0.4000 0.4000 0.1000 (   697 PWs)   bands (ev):

   -65.0417 -31.8491 -31.4813 -31.3060  15.6283  17.7566  19.2916  21.0913
    21.4480  22.6423  31.2722  38.6956

          k =-0.4000 0.3000 0.2000 (   693 PWs)   bands (ev):

   -65.0480 -31.7854 -31.4717 -31.3436  15.8731  17.8116  18.2207  21.0319
    21.4642  22.9758  33.4632  36.4405

          k = 0.5000-0.5000 0.1000 (   696 PWs)   bands (ev):

   -65.0299 -31.9006 -31.5041 -31.3064  15.7794  17.6373  20.0921  21.1447
    21.4928  23.2872  29.3450  38.2211

          k = 0.5000-0.6000 0.2000 (   698 PWs)   bands (ev):

   -65.0285 -31.8434 -31.5347 -31.3482  16.2899  17.6266  18.9198  21.1715
    21.5394  24.5109  30.0151  35.5520

          k = 0.5000-0.7000 0.3000 (   698 PWs)   bands (ev):

   -65.0279 -31.7948 -31.5654 -31.3722  16.7948  17.6363  18.1421  21.1644
    21.5214  25.0107  31.7803  32.7637

          k = 0.4000-0.6000 0.3000 (   704 PWs)   bands (ev):

   -65.0203 -31.7698 -31.6330 -31.3805  16.9577  17.6592  18.2497  21.2898
    21.4896  26.9280  29.3502  32.0166

          k = 0.0000 0.0000 0.3000 (   695 PWs)   bands (ev):

   -65.1082 -31.4522 -31.3769 -31.3769  13.0765  19.1298  19.1298  19.7047
    20.0646  21.5960  41.2250  43.3987

          k = 0.0000-0.1000 0.4000 (   689 PWs)   bands (ev):

   -65.0727 -31.5991 -31.4388 -31.3920  14.4581  18.8343  18.9232  19.8766
    20.5021  21.8336  38.0510  41.1376

          k = 0.0000-0.2000 0.5000 (   695 PWs)   bands (ev):

   -65.0370 -31.7633 -31.5003 -31.3886  15.7666  18.3604  18.5958  20.3422
    21.5711  22.3956  33.6122  39.5147

          k = 0.0000-0.3000 0.6000 (   703 PWs)   bands (ev):

   -65.0148 -31.8649 -31.5384 -31.3855  16.2136  18.3923  18.4945  20.5081
    22.3362  23.8119  30.0524  38.3475

          k =-0.1000-0.1000 0.5000 (   706 PWs)   bands (ev):

   -65.0385 -31.7041 -31.5133 -31.4244  15.7263  18.1944  19.0378  19.9808
    21.2153  22.4398  36.1099  36.7225

          k =-0.1000-0.2000 0.6000 (   700 PWs)   bands (ev):

   -65.0107 -31.8003 -31.5826 -31.4262  16.5846  17.7644  18.8013  20.4298
    21.8133  24.1163  32.0529  35.1121

          k =-0.1000 0.7000-0.3000 (   707 PWs)   bands (ev):

   -65.0000 -31.8388 -31.6097 -31.4252  16.7040  17.8916  18.5704  20.5611
    22.1273  25.8322  29.4657  34.5797

          k =-0.2000 0.8000-0.3000 (   700 PWs)   bands (ev):

   -64.9944 -31.7856 -31.6870 -31.4326  17.2705  17.3457  18.4355  21.0308
    21.6917  26.8706  30.4688  31.6795

          k =-0.3000 0.3000 0.3000 (   697 PWs)   bands (ev):

   -65.0536 -31.7640 -31.4028 -31.4028  15.9249  17.7900  17.7900  21.2809
    21.2809  23.0243  35.7266  35.7266

          k = 0.6000-0.6000 0.3000 (   696 PWs)   bands (ev):

   -65.0327 -31.7909 -31.5054 -31.4122  16.8477  17.5521  17.9787  21.3346
    21.4668  24.8421  31.9555  34.6369

          k = 0.5000-0.5000 0.3000 (   702 PWs)   bands (ev):

   -65.0247 -31.7839 -31.5622 -31.4162  16.8558  17.4765  18.4875  21.3749
    21.5224  26.3814  29.5021  34.2581

          k = 0.5000-0.6000 0.4000 (   695 PWs)   bands (ev):

   -65.0233 -31.7238 -31.5885 -31.4632  17.2598  17.6106  17.9115  21.4563
    21.5164  27.2992  30.5592  31.7499

          k = 0.0000 0.0000 0.5000 (   703 PWs)   bands (ev):

   -65.0403 -31.6183 -31.5041 -31.5041  15.5320  18.5025  19.5629  19.5629
    20.5889  22.3355  38.7989  38.7990

          k = 0.0000-0.1000 0.6000 (   698 PWs)   bands (ev):

   -65.0077 -31.7270 -31.5685 -31.5229  16.4127  17.6981  19.6118  20.0818
    21.4370  23.4649  34.5019  36.6971

          k = 0.0000-0.2000 0.7000 (   700 PWs)   bands (ev):

   -64.9876 -31.8125 -31.6080 -31.5158  16.7099  17.3548  19.5064  20.3097
    22.2252  25.7216  30.5201  35.4115

          k =-0.1000-0.1000 0.7000 (   693 PWs)   bands (ev):

   -64.9828 -31.7668 -31.6499 -31.5432  16.7596  17.1026  19.6909  20.7497
    21.8491  25.5707  32.7987  33.1971

          k =-0.1000 0.8000-0.2000 (   695 PWs)   bands (ev):

   -64.9733 -31.7823 -31.6901 -31.5415  16.7910  16.9433  19.5949  21.1141
    22.0497  28.0405  29.8117  32.4235

          k = 0.5000-0.5000 0.5000 (   688 PWs)   bands (ev):

   -65.0215 -31.5973 -31.5973 -31.5973  17.6242  17.6242  17.6242  21.5409
    21.5409  30.1388  30.1388  30.1388

          k = 0.0000 0.0000 0.7000 (   699 PWs)   bands (ev):

   -64.9784 -31.7097 -31.6360 -31.6360  16.5463  17.0287  20.6327  20.6327
    21.5073  25.0430  34.3600  34.3600

          k = 0.0000-0.1000 0.8000 (   699 PWs)   bands (ev):

   -64.9602 -31.7597 -31.6772 -31.6445  16.4838  16.5799  20.8743  21.1043
    22.1172  27.5973  31.2636  32.9016

          k =-0.1000 0.9000-0.1000 (   697 PWs)   bands (ev):

   -64.9516 -31.7368 -31.7368 -31.6533  16.3614  16.3614  20.9931  21.9584
    21.9584  30.1655  30.1655  30.9660

          k = 0.0000 0.0000 0.9000 (   691 PWs)   bands (ev):

   -64.9433 -31.7306 -31.7192 -31.7192  16.1489  16.1660  21.9210  21.9210
    22.0921  29.6008  31.2753  31.2753

     the Fermi energy is    19.9724 ev

!    total energy              =    -254.23771613 Ry
     estimated scf accuracy    <          9.2E-10 Ry
     smearing contrib. (-TS)   =       0.00024966 Ry
     internal energy E=F+TS    =    -254.23796579 Ry

     The total energy is F=E-TS. E is the sum of the following terms:
     one-electron contribution =    -102.93411371 Ry
     hartree contribution      =      62.35173415 Ry
     xc contribution           =     -34.49332410 Ry
     ewald contribution        =    -179.16226213 Ry

     total magnetization       =     1.94 Bohr mag/cell
     absolute magnetization    =     1.99 Bohr mag/cell

     convergence has been achieved in  10 iterations

     Writing output data file ./tempdir/fe.save/

     init_run     :      0.65s CPU      0.66s WALL (       1 calls)
     electrons    :      6.23s CPU      6.55s WALL (       1 calls)

     Called by init_run:
     wfcinit      :      0.16s CPU      0.16s WALL (       1 calls)
     potinit      :      0.02s CPU      0.03s WALL (       1 calls)
     hinit0       :      0.40s CPU      0.40s WALL (       1 calls)

     Called by electrons:
     c_bands      :      3.81s CPU      3.84s WALL (      10 calls)
     sum_band     :      1.64s CPU      1.78s WALL (      10 calls)
     v_of_rho     :      0.17s CPU      0.18s WALL (      11 calls)
     newd         :      0.55s CPU      0.70s WALL (      11 calls)
     mix_rho      :      0.06s CPU      0.06s WALL (      10 calls)

     Called by c_bands:
     init_us_2    :      0.11s CPU      0.12s WALL (     924 calls)
     cegterg      :      3.33s CPU      3.36s WALL (     440 calls)

     Called by *egterg:
     cdiaghg      :      0.17s CPU      0.17s WALL (    1565 calls)
     h_psi        :      2.93s CPU      2.95s WALL (    1609 calls)
     s_psi        :      0.05s CPU      0.05s WALL (    1609 calls)
     g_psi        :      0.02s CPU      0.02s WALL (    1125 calls)

     Called by h_psi:
     h_psi:calbec :      0.07s CPU      0.07s WALL (    1609 calls)
     vloc_psi     :      2.78s CPU      2.81s WALL (    1609 calls)
     add_vuspsi   :      0.06s CPU      0.06s WALL (    1609 calls)

     General routines
     calbec       :      0.09s CPU      0.09s WALL (    2049 calls)
     fft          :      0.16s CPU      0.16s WALL (     115 calls)
     ffts         :      0.01s CPU      0.01s WALL (      42 calls)
     fftw         :      2.96s CPU      2.99s WALL (   32398 calls)
     interpolate  :      0.04s CPU      0.04s WALL (      22 calls)

     Parallel routines

     PWSCF        :      6.97s CPU      7.31s WALL


   This run was terminated on:  22: 1:18  18Apr2021            

=------------------------------------------------------------------------------=
   JOB DONE.
=------------------------------------------------------------------------------=
