
     Program PWSCF v.6.7GPU starts on 18Apr2021 at 22: 2:12 

     This program is part of the open-source Quantum ESPRESSO suite
     for quantum simulation of materials; please cite
         "P. Giannozzi et al., J. Phys.:Condens. Matter 21 395502 (2009);
         "P. Giannozzi et al., J. Phys.:Condens. Matter 29 465901 (2017);
         "P. Giannozzi et al., J. Chem. Phys. 152 154105 (2020);
          URL http://www.quantum-espresso.org", 
     in publications or presentations arising from this work. More details at
     http://www.quantum-espresso.org/quote

     Parallel version (MPI & OpenMP), running on       2 processor cores
     Number of MPI processes:                 2
     Threads/MPI process:                     1

     MPI processes distributed on     1 nodes
     K-points division:     npool     =       2
     Waiting for input...
     Reading input from standard input

     Current dimensions of program PWSCF are:
     Max number of different atomic species (ntypx) = 10
     Max number of k-points (npk) =  40000
     Max angular momentum in pseudopotentials (lmaxx) =  3

     Subspace diagonalization in iterative solution of the eigenvalue problem:
     a serial algorithm will be used


     G-vector sticks info
     --------------------
     sticks:   dense  smooth     PW     G-vecs:    dense   smooth      PW
     Sum        1547     523    165                38823     7395    1289

     Using Slab Decomposition



     bravais-lattice index     =            3
     lattice parameter (alat)  =       5.7000  a.u.
     unit-cell volume          =      92.5965 (a.u.)^3
     number of atoms/cell      =            1
     number of atomic types    =            1
     number of electrons       =        16.00
     number of Kohn-Sham states=           12
     kinetic-energy cutoff     =      70.0000  Ry
     charge density cutoff     =     850.0000  Ry
     scf convergence threshold =      1.0E-08
     mixing beta               =       0.7000
     number of iterations used =            8  plain     mixing
     Exchange-correlation= LDA
                           (   1   1   0   0   0   0   0)

     celldm(1)=   5.700000  celldm(2)=   0.000000  celldm(3)=   0.000000
     celldm(4)=   0.000000  celldm(5)=   0.000000  celldm(6)=   0.000000

     crystal axes: (cart. coord. in units of alat)
               a(1) = (   0.500000   0.500000   0.500000 )  
               a(2) = (  -0.500000   0.500000   0.500000 )  
               a(3) = (  -0.500000  -0.500000   0.500000 )  

     reciprocal axes: (cart. coord. in units 2 pi/alat)
               b(1) = (  1.000000  0.000000  1.000000 )  
               b(2) = ( -1.000000  1.000000  0.000000 )  
               b(3) = (  0.000000 -1.000000  1.000000 )  


     PseudoPot. # 1 for Fe read from file:
     /home/pietro/repositories/materials-for-max-qe2021-online-school/pseudo/Fe.pz-spn-rrkjus_psl.0.2.1.UPF
     MD5 check sum: 3cbc4c6ff80f64c0ae98e6ac432cb3b7
     Pseudo is Ultrasoft + core correction, Zval = 16.0
     Generated using "atomic" code by A. Dal Corso  v.5.0.2 svn rev. 9415
     Using radial grid of 1191 points,  6 beta functions with: 
                l(1) =   0
                l(2) =   0
                l(3) =   1
                l(4) =   1
                l(5) =   2
                l(6) =   2
     Q(r) pseudized with 0 coefficients 


     atomic species   valence    mass     pseudopotential
        Fe            16.00    55.84500     Fe( 1.00)

     Starting magnetic structure 
     atomic species   magnetization
        Fe           0.700

     48 Sym. Ops., with inversion, found



   Cartesian axes

     site n.     atom                  positions (alat units)
         1           Fe  tau(   1) = (   0.0000000   0.0000000   0.0000000  )

     number of k points=    44  Marzari-Vanderbilt smearing, width (Ry)=  0.0200
                       cart. coord. in units 2pi/alat
        k(    1) = (   0.0000000   0.0000000   0.1000000), wk =   0.0060000
        k(    2) = (   0.0000000  -0.1000000   0.2000000), wk =   0.0240000
        k(    3) = (   0.0000000  -0.2000000   0.3000000), wk =   0.0240000
        k(    4) = (   0.0000000  -0.3000000   0.4000000), wk =   0.0240000
        k(    5) = (   0.0000000  -0.4000000   0.5000000), wk =   0.0240000
        k(    6) = (  -0.1000000   0.1000000   0.1000000), wk =   0.0080000
        k(    7) = (  -0.1000000  -0.1000000   0.3000000), wk =   0.0240000
        k(    8) = (  -0.1000000  -0.2000000   0.4000000), wk =   0.0480000
        k(    9) = (  -0.1000000  -0.3000000   0.5000000), wk =   0.0480000
        k(   10) = (  -0.1000000   0.6000000  -0.4000000), wk =   0.0240000
        k(   11) = (  -0.2000000   0.2000000   0.1000000), wk =   0.0240000
        k(   12) = (  -0.2000000  -0.2000000   0.5000000), wk =   0.0240000
        k(   13) = (  -0.2000000   0.7000000  -0.4000000), wk =   0.0480000
        k(   14) = (  -0.3000000   0.3000000   0.1000000), wk =   0.0240000
        k(   15) = (  -0.3000000   0.2000000   0.2000000), wk =   0.0240000
        k(   16) = (  -0.3000000   0.7000000  -0.3000000), wk =   0.0080000
        k(   17) = (  -0.4000000   0.4000000   0.1000000), wk =   0.0240000
        k(   18) = (  -0.4000000   0.3000000   0.2000000), wk =   0.0480000
        k(   19) = (   0.5000000  -0.5000000   0.1000000), wk =   0.0120000
        k(   20) = (   0.5000000  -0.6000000   0.2000000), wk =   0.0480000
        k(   21) = (   0.5000000  -0.7000000   0.3000000), wk =   0.0240000
        k(   22) = (   0.4000000  -0.6000000   0.3000000), wk =   0.0240000
        k(   23) = (   0.0000000   0.0000000   0.3000000), wk =   0.0060000
        k(   24) = (   0.0000000  -0.1000000   0.4000000), wk =   0.0240000
        k(   25) = (   0.0000000  -0.2000000   0.5000000), wk =   0.0240000
        k(   26) = (   0.0000000  -0.3000000   0.6000000), wk =   0.0240000
        k(   27) = (  -0.1000000  -0.1000000   0.5000000), wk =   0.0240000
        k(   28) = (  -0.1000000  -0.2000000   0.6000000), wk =   0.0480000
        k(   29) = (  -0.1000000   0.7000000  -0.3000000), wk =   0.0240000
        k(   30) = (  -0.2000000   0.8000000  -0.3000000), wk =   0.0240000
        k(   31) = (  -0.3000000   0.3000000   0.3000000), wk =   0.0080000
        k(   32) = (   0.6000000  -0.6000000   0.3000000), wk =   0.0240000
        k(   33) = (   0.5000000  -0.5000000   0.3000000), wk =   0.0120000
        k(   34) = (   0.5000000  -0.6000000   0.4000000), wk =   0.0240000
        k(   35) = (   0.0000000   0.0000000   0.5000000), wk =   0.0060000
        k(   36) = (   0.0000000  -0.1000000   0.6000000), wk =   0.0240000
        k(   37) = (   0.0000000  -0.2000000   0.7000000), wk =   0.0240000
        k(   38) = (  -0.1000000  -0.1000000   0.7000000), wk =   0.0240000
        k(   39) = (  -0.1000000   0.8000000  -0.2000000), wk =   0.0240000
        k(   40) = (   0.5000000  -0.5000000   0.5000000), wk =   0.0020000
        k(   41) = (   0.0000000   0.0000000   0.7000000), wk =   0.0060000
        k(   42) = (   0.0000000  -0.1000000   0.8000000), wk =   0.0240000
        k(   43) = (  -0.1000000   0.9000000  -0.1000000), wk =   0.0080000
        k(   44) = (   0.0000000   0.0000000   0.9000000), wk =   0.0060000

     Dense  grid:    38823 G-vectors     FFT dimensions: (  45,  45,  45)

     Smooth grid:     7395 G-vectors     FFT dimensions: (  27,  27,  27)

     Estimated max dynamical RAM per process >     103.90 MB

     Estimated total dynamical RAM >     188.84 MB

     Check: negative core charge=   -0.000009
     Generating pointlists ...
     new r_m :   0.3572 (alat units)  2.0362 (a.u.) for type    1

     Initial potential from superposition of free atoms

     starting charge   15.99965, renormalised to   16.00000
     Starting wfcs are   13 randomized atomic wfcs

     total cpu time spent up to now is        1.0 secs

     Self-consistent Calculation

     iteration #  1     ecut=    70.00 Ry     beta= 0.70
     Davidson diagonalization with overlap
     ethr =  1.00E-02,  avg # of iterations =  2.9

     negative rho (up, down):  0.000E+00 8.538E-05

     total cpu time spent up to now is        2.1 secs

     total energy              =    -253.94478386 Ry
     estimated scf accuracy    <       1.46473480 Ry

     total magnetization       =     3.90 Bohr mag/cell
     absolute magnetization    =     3.97 Bohr mag/cell

     iteration #  2     ecut=    70.00 Ry     beta= 0.70
     Davidson diagonalization with overlap
     ethr =  9.15E-03,  avg # of iterations =  1.3

     negative rho (up, down):  0.000E+00 8.730E-05

     total cpu time spent up to now is        2.9 secs

     total energy              =    -254.06967291 Ry
     estimated scf accuracy    <       0.42749170 Ry

     total magnetization       =     3.04 Bohr mag/cell
     absolute magnetization    =     3.18 Bohr mag/cell

     iteration #  3     ecut=    70.00 Ry     beta= 0.70
     Davidson diagonalization with overlap
     ethr =  2.67E-03,  avg # of iterations =  2.1

     negative rho (up, down):  0.000E+00 9.597E-05

     total cpu time spent up to now is        4.0 secs

     total energy              =    -254.10633770 Ry
     estimated scf accuracy    <       0.64366706 Ry

     total magnetization       =     2.74 Bohr mag/cell
     absolute magnetization    =     2.85 Bohr mag/cell

     iteration #  4     ecut=    70.00 Ry     beta= 0.70
     Davidson diagonalization with overlap
     ethr =  2.67E-03,  avg # of iterations =  2.0

     negative rho (up, down):  0.000E+00 7.945E-05

     total cpu time spent up to now is        4.9 secs

     total energy              =    -254.20183234 Ry
     estimated scf accuracy    <       0.00100181 Ry

     total magnetization       =     2.54 Bohr mag/cell
     absolute magnetization    =     2.67 Bohr mag/cell

     iteration #  5     ecut=    70.00 Ry     beta= 0.70
     Davidson diagonalization with overlap
     ethr =  6.26E-06,  avg # of iterations =  6.2

     negative rho (up, down):  0.000E+00 7.721E-05

     total cpu time spent up to now is        6.6 secs

     total energy              =    -254.20366644 Ry
     estimated scf accuracy    <       0.00110401 Ry

     total magnetization       =     2.58 Bohr mag/cell
     absolute magnetization    =     2.69 Bohr mag/cell

     iteration #  6     ecut=    70.00 Ry     beta= 0.70
     Davidson diagonalization with overlap
     ethr =  6.26E-06,  avg # of iterations =  1.3

     negative rho (up, down):  0.000E+00 7.191E-05

     total cpu time spent up to now is        7.5 secs

     total energy              =    -254.20372122 Ry
     estimated scf accuracy    <       0.00015304 Ry

     total magnetization       =     2.57 Bohr mag/cell
     absolute magnetization    =     2.68 Bohr mag/cell

     iteration #  7     ecut=    70.00 Ry     beta= 0.70
     Davidson diagonalization with overlap
     ethr =  9.56E-07,  avg # of iterations =  2.0

     negative rho (up, down):  0.000E+00 7.203E-05

     total cpu time spent up to now is        8.9 secs

     total energy              =    -254.20373675 Ry
     estimated scf accuracy    <       0.00001884 Ry

     total magnetization       =     2.57 Bohr mag/cell
     absolute magnetization    =     2.67 Bohr mag/cell

     iteration #  8     ecut=    70.00 Ry     beta= 0.70
     Davidson diagonalization with overlap
     ethr =  1.18E-07,  avg # of iterations =  2.7

     negative rho (up, down):  0.000E+00 7.230E-05

     total cpu time spent up to now is        9.9 secs

     total energy              =    -254.20374217 Ry
     estimated scf accuracy    <       0.00000155 Ry

     total magnetization       =     2.57 Bohr mag/cell
     absolute magnetization    =     2.67 Bohr mag/cell

     iteration #  9     ecut=    70.00 Ry     beta= 0.70
     Davidson diagonalization with overlap
     ethr =  9.68E-09,  avg # of iterations =  2.8

     negative rho (up, down):  0.000E+00 7.232E-05

     total cpu time spent up to now is       11.0 secs

     total energy              =    -254.20374252 Ry
     estimated scf accuracy    <       0.00000007 Ry

     total magnetization       =     2.57 Bohr mag/cell
     absolute magnetization    =     2.67 Bohr mag/cell

     iteration # 10     ecut=    70.00 Ry     beta= 0.70
     Davidson diagonalization with overlap
     ethr =  4.66E-10,  avg # of iterations =  3.5

     negative rho (up, down):  0.000E+00 7.231E-05

     Magnetic moment per site  (integrated on atomic sphere of radius R)
     atom   1 (R=0.357)  charge= 14.5554  magn=  2.6059

     total cpu time spent up to now is       12.1 secs

     End of self-consistent calculation

 ------ SPIN UP ------------


          k = 0.0000 0.0000 0.1000 (   943 PWs)   bands (ev):

   -73.1917 -39.4942 -39.4908 -39.4908   6.6329  11.9736  11.9736  12.0177
    12.9589  13.0537  35.7541  36.6067

          k = 0.0000-0.1000 0.2000 (   930 PWs)   bands (ev):

   -73.1851 -39.5318 -39.5043 -39.4912   7.3268  11.8345  11.9539  12.3341
    12.8055  13.0979  32.2582  34.8600

          k = 0.0000-0.2000 0.3000 (   923 PWs)   bands (ev):

   -73.1746 -39.5951 -39.5264 -39.4904   8.5487  11.5945  11.8901  12.7840
    12.9071  13.1497  27.7647  32.8919

          k = 0.0000-0.3000 0.4000 (   913 PWs)   bands (ev):

   -73.1641 -39.6578 -39.5485 -39.4894   9.6541  11.3619  12.2532  12.9513
    13.3210  13.5409  23.5707  31.7877

          k = 0.0000-0.4000 0.5000 (   912 PWs)   bands (ev):

   -73.1575 -39.6966 -39.5624 -39.4888   9.9512  11.2219  12.7962  13.0044
    13.9715  14.4395  20.3345  30.7727

          k =-0.1000 0.1000 0.1000 (   935 PWs)   bands (ev):

   -73.1884 -39.5203 -39.4908 -39.4908   6.9847  11.8793  11.8793  12.2722
    12.9843  12.9843  34.2147  34.2147

          k =-0.1000-0.1000 0.3000 (   914 PWs)   bands (ev):

   -73.1767 -39.5745 -39.5191 -39.5000   8.2838  11.7813  11.8019  12.6498
    12.7660  13.2017  30.0093  30.7714

          k =-0.1000-0.2000 0.4000 (   917 PWs)   bands (ev):

   -73.1663 -39.6306 -39.5446 -39.5023   9.5157  11.5266  11.7618  12.7266
    13.2267  13.6208  25.9098  28.7931

          k =-0.1000-0.3000 0.5000 (   918 PWs)   bands (ev):

   -73.1579 -39.6755 -39.5669 -39.5025  10.1573  11.3630  12.0671  12.9019
    13.5035  14.8235  22.0164  27.6769

          k =-0.1000 0.6000-0.4000 (   916 PWs)   bands (ev):

   -73.1547 -39.6925 -39.5757 -39.5021  10.2188  11.3097  12.2814  12.9237
    13.7328  16.0744  19.8316  27.2734

          k =-0.2000 0.2000 0.1000 (   922 PWs)   bands (ev):

   -73.1797 -39.5716 -39.5086 -39.4906   7.9752  11.6533  11.7759  12.7905
    12.8956  13.0383  30.0324  32.3395

          k =-0.2000-0.2000 0.5000 (   916 PWs)   bands (ev):

   -73.1580 -39.6588 -39.5742 -39.5104  10.4033  11.2874  11.7511  12.8173
    13.3361  14.9924  24.3712  24.7470

          k =-0.2000 0.7000-0.4000 (   911 PWs)   bands (ev):

   -73.1529 -39.6701 -39.6008 -39.5125  10.6779  11.2928  11.7208  12.9824
    13.4456  17.0658  20.9774  23.8257

          k =-0.3000 0.3000 0.1000 (   920 PWs)   bands (ev):

   -73.1691 -39.6322 -39.5347 -39.4903   9.2695  11.4003  11.8251  12.9283
    13.0957  13.5153  25.6494  30.7786

          k =-0.3000 0.2000 0.2000 (   927 PWs)   bands (ev):

   -73.1710 -39.6203 -39.5221 -39.5005   9.1235  11.4945  11.5012  12.9059
    13.0988  13.5592  27.9782  28.5268

          k =-0.3000 0.7000-0.3000 (   919 PWs)   bands (ev):

   -73.1510 -39.6418 -39.6418 -39.5156  11.0355  11.3271  11.3271  13.2386
    13.2386  19.7201  19.7201  21.5165

          k =-0.4000 0.4000 0.1000 (   911 PWs)   bands (ev):

   -73.1604 -39.6795 -39.5565 -39.4899   9.9500  11.2094  12.6600  13.0280
    13.1423  14.4497  21.8028  29.7437

          k =-0.4000 0.3000 0.2000 (   912 PWs)   bands (ev):

   -73.1622 -39.6580 -39.5508 -39.5040  10.1709  11.2665  11.6621  12.9720
    13.1715  14.6769  24.0349  26.9251

          k = 0.5000-0.5000 0.1000 (   906 PWs)   bands (ev):

   -73.1571 -39.6973 -39.5649 -39.4898  10.0256  11.1390  13.0405  13.1609
    13.2889  15.3774  19.7557  29.3807

          k = 0.5000-0.6000 0.2000 (   908 PWs)   bands (ev):

   -73.1568 -39.6779 -39.5734 -39.5050  10.3759  11.1560  12.2714  13.0529
    13.2398  16.2809  20.6388  26.1850

          k = 0.5000-0.7000 0.3000 (   909 PWs)   bands (ev):

   -73.1567 -39.6612 -39.5825 -39.5143  10.7190  11.2188  11.6495  13.0489
    13.2271  16.5295  22.7347  23.2430

          k = 0.4000-0.6000 0.3000 (   908 PWs)   bands (ev):

   -73.1546 -39.6525 -39.6060 -39.5168  10.7825  11.2429  11.7299  13.1184
    13.2285  18.5010  20.2326  22.6840

          k = 0.0000 0.0000 0.3000 (   915 PWs)   bands (ev):

   -73.1789 -39.5389 -39.5182 -39.5182   7.9848  12.0262  12.0262  12.3481
    12.4448  13.2508  32.1770  32.9165

          k = 0.0000-0.1000 0.4000 (   922 PWs)   bands (ev):

   -73.1689 -39.5922 -39.5412 -39.5227   9.1121  11.8514  11.9128  12.4132
    12.8418  13.4486  28.2917  30.8669

          k = 0.0000-0.2000 0.5000 (   916 PWs)   bands (ev):

   -73.1588 -39.6505 -39.5639 -39.5205  10.0881  11.6522  11.7234  12.7052
    13.4847  14.1460  24.0624  29.2490

          k = 0.0000-0.3000 0.6000 (   918 PWs)   bands (ev):

   -73.1525 -39.6868 -39.5780 -39.5190  10.3146  11.6042  11.8105  12.7623
    13.9314  15.8631  20.6219  28.3160

          k =-0.1000-0.1000 0.5000 (   919 PWs)   bands (ev):

   -73.1591 -39.6298 -39.5673 -39.5344  10.0867  11.4622  12.0189  12.5107
    13.2429  14.1224  26.5158  26.8425

          k =-0.1000-0.2000 0.6000 (   910 PWs)   bands (ev):

   -73.1512 -39.6647 -39.5918 -39.5349  10.5976  11.2659  11.8761  12.7715
    13.6098  15.8313  22.6836  25.5523

          k =-0.1000 0.7000-0.3000 (   916 PWs)   bands (ev):

   -73.1482 -39.6789 -39.6017 -39.5347  10.6117  11.3967  11.7254  12.8407
    13.8099  17.6610  20.1252  25.1294

          k =-0.2000 0.8000-0.3000 (   915 PWs)   bands (ev):

   -73.1466 -39.6610 -39.6279 -39.5384  10.9951  10.9986  11.6613  13.1483
    13.5430  18.3391  21.4985  22.2876

          k =-0.3000 0.3000 0.3000 (   914 PWs)   bands (ev):

   -73.1639 -39.6509 -39.5250 -39.5250  10.2626  11.2634  11.2634  13.0732
    13.0732  14.6825  26.4632  26.4632

          k = 0.6000-0.6000 0.3000 (   908 PWs)   bands (ev):

   -73.1581 -39.6596 -39.5612 -39.5274  10.7928  11.1315  11.5712  13.1088
    13.1537  16.3460  22.7218  25.5232

          k = 0.5000-0.5000 0.3000 (   910 PWs)   bands (ev):

   -73.1560 -39.6567 -39.5815 -39.5286  10.7504  11.0900  11.9480  13.1335
    13.1755  18.0584  20.2019  25.2036

          k = 0.5000-0.6000 0.4000 (   918 PWs)   bands (ev):

   -73.1557 -39.6363 -39.5899 -39.5455  10.9880  11.2388  11.5122  13.1594
    13.1808  18.6826  21.7034  22.3538

          k = 0.0000 0.0000 0.5000 (   920 PWs)   bands (ev):

   -73.1595 -39.5975 -39.5647 -39.5647   9.9516  11.5964  12.3262  12.3262
    12.8905  13.9590  28.6435  28.6435

          k = 0.0000-0.1000 0.6000 (   919 PWs)   bands (ev):

   -73.1502 -39.6392 -39.5882 -39.5701  10.5214  11.1556  12.3578  12.6259
    13.4066  15.2168  24.9542  26.9205

          k = 0.0000-0.2000 0.7000 (   919 PWs)   bands (ev):

   -73.1444 -39.6708 -39.6028 -39.5673  10.6083  11.0154  12.2948  12.7529
    13.8669  17.4761  21.3166  25.9322

          k =-0.1000-0.1000 0.7000 (   913 PWs)   bands (ev):

   -73.1430 -39.6549 -39.6166 -39.5785  10.6733  10.8037  12.4159  13.0356
    13.6513  17.2587  23.5970  23.8686

          k =-0.1000 0.8000-0.2000 (   917 PWs)   bands (ev):

   -73.1402 -39.6617 -39.6306 -39.5784  10.6305  10.7430  12.3700  13.2448
    13.7730  19.6154  20.7980  23.2914

          k = 0.5000-0.5000 0.5000 (   928 PWs)   bands (ev):

   -73.1553 -39.5925 -39.5925 -39.5925  11.2628  11.2628  11.2628  13.1846
    13.1846  21.3514  21.3514  21.3514

          k = 0.0000 0.0000 0.7000 (   920 PWs)   bands (ev):

   -73.1416 -39.6347 -39.6124 -39.6124  10.5357  10.7443  12.9860  12.9860
    13.4419  16.8457  25.0771  25.0771

          k = 0.0000-0.1000 0.8000 (   900 PWs)   bands (ev):

   -73.1362 -39.6543 -39.6268 -39.6144  10.4422  10.4872  13.1148  13.2624
    13.8037  19.2536  22.3995  24.0008

          k =-0.1000 0.9000-0.1000 (   895 PWs)   bands (ev):

   -73.1337 -39.6473 -39.6473 -39.6183  10.3519  10.3519  13.1926  13.7250
    13.7250  21.6530  21.6530  22.2011

          k = 0.0000 0.0000 0.9000 (   888 PWs)   bands (ev):

   -73.1312 -39.6449 -39.6421 -39.6421  10.2180  10.2224  13.7049  13.7049
    13.7865  21.2776  22.8426  22.8426

 ------ SPIN DOWN ----------


          k = 0.0000 0.0000 0.1000 (   943 PWs)   bands (ev):

   -70.2184 -36.5905 -36.5865 -36.5865   7.0068  14.1774  14.1774  14.2345
    15.5360  15.6605  35.9656  36.8337

          k = 0.0000-0.1000 0.2000 (   930 PWs)   bands (ev):

   -70.2111 -36.6337 -36.6018 -36.5872   7.7100  14.0024  14.1207  14.5900
    15.3304  15.7144  32.8655  35.2363

          k = 0.0000-0.2000 0.3000 (   923 PWs)   bands (ev):

   -70.1993 -36.7060 -36.6268 -36.5864   8.9995  13.7044  13.9064  15.2436
    15.2706  15.7691  28.6218  33.2690

          k = 0.0000-0.3000 0.4000 (   913 PWs)   bands (ev):

   -70.1876 -36.7776 -36.6517 -36.5855  10.4910  13.4188  13.8246  15.4085
    15.8500  15.9818  24.6510  31.7365

          k = 0.0000-0.4000 0.5000 (   912 PWs)   bands (ev):

   -70.1803 -36.8217 -36.6672 -36.5850  11.3375  13.2480  14.3389  15.4957
    16.0884  16.4951  21.7614  30.9060

          k =-0.1000 0.1000 0.1000 (   935 PWs)   bands (ev):

   -70.2147 -36.6204 -36.5865 -36.5865   7.3623  14.0589  14.0589  14.5161
    15.5685  15.5685  34.6601  34.6601

          k =-0.1000-0.1000 0.3000 (   914 PWs)   bands (ev):

   -70.2017 -36.6825 -36.6187 -36.5973   8.7015  13.9004  13.9223  15.0622
    15.1104  15.8227  30.7497  31.5009

          k =-0.1000-0.2000 0.4000 (   917 PWs)   bands (ev):

   -70.1901 -36.7464 -36.6474 -36.6000  10.1237  13.5671  13.7198  15.1599
    15.7408  16.0037  26.8450  29.5525

          k =-0.1000-0.3000 0.5000 (   918 PWs)   bands (ev):

   -70.1807 -36.7975 -36.6726 -36.6002  11.3658  13.3684  13.6933  15.3519
    15.9841  16.8242  23.1939  28.4258

          k =-0.1000 0.6000-0.4000 (   916 PWs)   bands (ev):

   -70.1771 -36.8168 -36.6824 -36.5999  11.7316  13.3220  13.8849  15.3956
    16.1718  17.5381  21.3153  28.0072

          k =-0.2000 0.2000 0.1000 (   922 PWs)   bands (ev):

   -70.2051 -36.6791 -36.6068 -36.5865   8.3785  13.7756  13.8820  15.0844
    15.4405  15.6400  30.7661  32.8818

          k =-0.2000-0.2000 0.5000 (   916 PWs)   bands (ev):

   -70.1808 -36.7783 -36.6812 -36.6090  11.4234  13.2027  13.6422  15.2521
    15.8726  17.0258  25.4112  25.6003

          k =-0.2000 0.7000-0.4000 (   911 PWs)   bands (ev):

   -70.1751 -36.7912 -36.7116 -36.6115  12.2335  13.1460  13.4644  15.4395
    15.9350  18.5968  22.1979  24.7359

          k =-0.3000 0.3000 0.1000 (   920 PWs)   bands (ev):

   -70.1931 -36.7482 -36.6362 -36.5864   9.8448  13.4605  13.6776  15.4576
    15.7209  15.8497  26.5966  31.3134

          k =-0.3000 0.2000 0.2000 (   927 PWs)   bands (ev):

   -70.1953 -36.7344 -36.6221 -36.5979   9.6092  13.5229  13.5366  15.4472
    15.7112  15.8632  28.7982  29.2957

          k =-0.3000 0.7000-0.3000 (   919 PWs)   bands (ev):

   -70.1730 -36.7586 -36.7586 -36.6149  12.8727  13.0401  13.0401  15.7165
    15.7165  20.9756  20.9756  22.5601

          k =-0.4000 0.4000 0.1000 (   911 PWs)   bands (ev):

   -70.1835 -36.8023 -36.6607 -36.5862  11.1189  13.2247  13.9341  15.5477
    15.7900  16.6247  23.0173  30.2415

          k =-0.4000 0.3000 0.2000 (   912 PWs)   bands (ev):

   -70.1855 -36.7776 -36.6548 -36.6020  11.0493  13.2321  13.4054  15.5144
    15.7984  16.8313  25.0328  27.7183

          k = 0.5000-0.5000 0.1000 (   906 PWs)   bands (ev):

   -70.1798 -36.8226 -36.6702 -36.5861  11.4883  13.1381  14.4612  15.5771
    15.8185  17.0772  21.2853  29.8601

          k = 0.5000-0.6000 0.2000 (   908 PWs)   bands (ev):

   -70.1794 -36.8003 -36.6804 -36.6033  11.8372  13.1037  13.7153  15.6027
    15.8492  17.9404  21.9416  26.9620

          k = 0.5000-0.7000 0.3000 (   909 PWs)   bands (ev):

   -70.1793 -36.7812 -36.6912 -36.6136  12.1406  13.0225  13.3063  15.6050
    15.8358  18.2739  23.8283  24.1330

          k = 0.4000-0.6000 0.3000 (   908 PWs)   bands (ev):

   -70.1769 -36.7713 -36.7179 -36.6165  12.4710  13.0391  13.3109  15.6870
    15.8213  19.8323  21.5216  23.6308

          k = 0.0000 0.0000 0.3000 (   915 PWs)   bands (ev):

   -70.2042 -36.6425 -36.6176 -36.6176   8.3844  14.1933  14.1933  14.6131
    14.8628  15.8797  32.6907  33.7075

          k = 0.0000-0.1000 0.4000 (   922 PWs)   bands (ev):

   -70.1929 -36.7027 -36.6434 -36.6229   9.6055  13.9711  14.0486  14.7238
    15.1688  16.0088  29.1424  31.7142

          k = 0.0000-0.2000 0.5000 (   916 PWs)   bands (ev):

   -70.1817 -36.7690 -36.6690 -36.6206  10.9961  13.5401  13.8168  15.0336
    15.9145  16.3256  25.0955  30.0712

          k = 0.0000-0.3000 0.6000 (   918 PWs)   bands (ev):

   -70.1747 -36.8102 -36.6848 -36.6190  11.7978  13.4953  13.6715  15.1396
    16.4478  17.3268  21.9460  29.0872

          k =-0.1000-0.1000 0.5000 (   919 PWs)   bands (ev):

   -70.1821 -36.7453 -36.6730 -36.6361  10.8516  13.5196  14.1063  14.7923
    15.6616  16.3561  27.4726  27.6649

          k =-0.1000-0.2000 0.6000 (   910 PWs)   bands (ev):

   -70.1733 -36.7849 -36.7010 -36.6367  11.9286  13.1259  13.9330  15.0964
    16.0589  17.5224  23.7587  26.4187

          k =-0.1000 0.7000-0.3000 (   916 PWs)   bands (ev):

   -70.1699 -36.8008 -36.7122 -36.6364  12.2783  13.1042  13.7748  15.1765
    16.2880  18.9069  21.4592  25.9752

          k =-0.2000 0.8000-0.3000 (   915 PWs)   bands (ev):

   -70.1681 -36.7802 -36.7422 -36.6404  12.6460  12.8282  13.6404  15.5186
    15.9740  19.6589  22.6352  23.2385

          k =-0.3000 0.3000 0.3000 (   914 PWs)   bands (ev):

   -70.1873 -36.7694 -36.6258 -36.6258  10.9311  13.2109  13.2109  15.6805
    15.6805  16.8665  27.3215  27.3215

          k = 0.6000-0.6000 0.3000 (   908 PWs)   bands (ev):

   -70.1809 -36.7795 -36.6670 -36.6288  12.0953  13.0256  13.1584  15.7149
    15.8021  18.1573  23.7523  26.6068

          k = 0.5000-0.5000 0.3000 (   910 PWs)   bands (ev):

   -70.1784 -36.7762 -36.6899 -36.6302  12.3395  12.9655  13.4492  15.7404
    15.8381  19.4185  21.5187  26.1967

          k = 0.5000-0.6000 0.4000 (   918 PWs)   bands (ev):

   -70.1781 -36.7528 -36.6997 -36.6493  12.7022  12.9654  13.0935  15.7960
    15.8345  20.0714  22.8287  23.2758

          k = 0.0000 0.0000 0.5000 (   920 PWs)   bands (ev):

   -70.1825 -36.7091 -36.6700 -36.6700  10.6385  13.7722  14.4846  14.4846
    15.2384  16.2769  29.5007  29.5007

          k = 0.0000-0.1000 0.6000 (   919 PWs)   bands (ev):

   -70.1721 -36.7557 -36.6965 -36.6765  11.6807  13.1716  14.5228  14.8451
    15.8249  16.9881  25.8885  27.7356

          k = 0.0000-0.2000 0.7000 (   919 PWs)   bands (ev):

   -70.1657 -36.7914 -36.7130 -36.6733  12.2758  12.8067  14.4507  14.9833
    16.3718  18.7347  22.4322  26.6862

          k =-0.1000-0.1000 0.7000 (   913 PWs)   bands (ev):

   -70.1641 -36.7732 -36.7290 -36.6858  12.2379  12.7293  14.5595  15.3197
    16.0997  18.5683  24.5555  24.6970

          k =-0.1000 0.8000-0.2000 (   917 PWs)   bands (ev):

   -70.1610 -36.7807 -36.7449 -36.6855  12.4552  12.5233  14.4775  15.5714
    16.2420  20.6573  21.8664  24.1335

          k = 0.5000-0.5000 0.5000 (   928 PWs)   bands (ev):

   -70.1776 -36.7028 -36.7028 -36.7028  12.9603  12.9603  12.9603  15.8501
    15.8501  22.4877  22.4877  22.4877

          k = 0.0000 0.0000 0.7000 (   920 PWs)   bands (ev):

   -70.1626 -36.7503 -36.7240 -36.7240  12.0691  12.7068  15.2349  15.2349
    15.8787  18.1224  25.8284  25.8284

          k = 0.0000-0.1000 0.8000 (   900 PWs)   bands (ev):

   -70.1567 -36.7721 -36.7405 -36.7265  12.2047  12.3530  15.4147  15.5588
    16.2978  20.2139  23.2176  24.6641

          k =-0.1000 0.9000-0.1000 (   895 PWs)   bands (ev):

   -70.1538 -36.7639 -36.7639 -36.7308  12.1808  12.1808  15.4885  16.1812
    16.1812  22.4253  22.4253  22.9044

          k = 0.0000 0.0000 0.9000 (   888 PWs)   bands (ev):

   -70.1511 -36.7612 -36.7578 -36.7578  12.0323  12.0688  16.1558  16.1558
    16.2813  21.9370  23.3772  23.3772

     the Fermi energy is    14.0598 ev

!    total energy              =    -254.20374255 Ry
     estimated scf accuracy    <          1.3E-09 Ry
     smearing contrib. (-TS)   =       0.00181871 Ry
     internal energy E=F+TS    =    -254.20556127 Ry

     The total energy is F=E-TS. E is the sum of the following terms:
     one-electron contribution =    -128.10207533 Ry
     hartree contribution      =      71.69198484 Ry
     xc contribution           =     -34.34919656 Ry
     ewald contribution        =    -163.44627422 Ry

     total magnetization       =     2.57 Bohr mag/cell
     absolute magnetization    =     2.67 Bohr mag/cell

     convergence has been achieved in  10 iterations

     Writing output data file ./tempdir/fe.save/

     init_run     :      0.90s CPU      0.92s WALL (       1 calls)
     electrons    :     10.73s CPU     11.10s WALL (       1 calls)

     Called by init_run:
     wfcinit      :      0.27s CPU      0.27s WALL (       1 calls)
     potinit      :      0.05s CPU      0.06s WALL (       1 calls)
     hinit0       :      0.47s CPU      0.47s WALL (       1 calls)

     Called by electrons:
     c_bands      :      7.12s CPU      7.20s WALL (      10 calls)
     sum_band     :      2.55s CPU      2.69s WALL (      10 calls)
     v_of_rho     :      0.18s CPU      0.20s WALL (      11 calls)
     newd         :      0.81s CPU      0.97s WALL (      11 calls)
     mix_rho      :      0.08s CPU      0.08s WALL (      10 calls)

     Called by c_bands:
     init_us_2    :      0.15s CPU      0.16s WALL (     924 calls)
     cegterg      :      6.18s CPU      6.25s WALL (     440 calls)

     Called by *egterg:
     cdiaghg      :      0.18s CPU      0.18s WALL (    1590 calls)
     h_psi        :      5.67s CPU      5.73s WALL (    1634 calls)
     s_psi        :      0.07s CPU      0.08s WALL (    1634 calls)
     g_psi        :      0.03s CPU      0.03s WALL (    1150 calls)

     Called by h_psi:
     h_psi:calbec :      0.10s CPU      0.10s WALL (    1634 calls)
     vloc_psi     :      5.47s CPU      5.52s WALL (    1634 calls)
     add_vuspsi   :      0.08s CPU      0.08s WALL (    1634 calls)

     General routines
     calbec       :      0.13s CPU      0.13s WALL (    2074 calls)
     fft          :      0.17s CPU      0.17s WALL (     115 calls)
     ffts         :      0.01s CPU      0.01s WALL (      42 calls)
     fftw         :      5.89s CPU      5.95s WALL (   32902 calls)
     interpolate  :      0.04s CPU      0.05s WALL (      22 calls)

     Parallel routines

     PWSCF        :     11.73s CPU     12.15s WALL


   This run was terminated on:  22: 2:25  18Apr2021            

=------------------------------------------------------------------------------=
   JOB DONE.
=------------------------------------------------------------------------------=
