
     Program PROJWFC v.6.7GPU starts on  7May2021 at  1:17:42 

     This program is part of the open-source Quantum ESPRESSO suite
     for quantum simulation of materials; please cite
         "P. Giannozzi et al., J. Phys.:Condens. Matter 21 395502 (2009);
         "P. Giannozzi et al., J. Phys.:Condens. Matter 29 465901 (2017);
         "P. Giannozzi et al., J. Chem. Phys. 152 154105 (2020);
          URL http://www.quantum-espresso.org", 
     in publications or presentations arising from this work. More details at
     http://www.quantum-espresso.org/quote

     Parallel version (MPI & OpenMP), running on       1 processor cores
     Number of MPI processes:                 1
     Threads/MPI process:                     1

     MPI processes distributed on     1 nodes

     Reading xml data from directory:

     /home/pietro/tmp/fe.save/

     IMPORTANT: XC functional enforced from input :
     Exchange-correlation= PBE
                           (   1   4   3   4   0   0   0)
     Any further DFT definition will be discarded
     Please, verify this is what you really want


     G-vector sticks info
     --------------------
     sticks:   dense  smooth     PW     G-vecs:    dense   smooth      PW
     Sum        1383     467    151                32565     6339    1157

     Using Slab Decomposition


     Check: negative core charge=   -0.000011

     negative rho (up, down):  0.000E+00 4.162E-05

     Optimized tetrahedron method (read from file) 
     [opt_tetra]  Optimized tetrahedron method is used.

     Calling projwave .... 

     Subspace diagonalization in iterative solution of the eigenvalue problem:
     a serial algorithm will be used


  Problem Sizes 
  natomwfc =           13
  nbnd     =           12
  nkstot   =          500
  npwx     =          786
  nkb      =           18


     Atomic states used for projection
     (read from pseudopotential files):

     state #   1: atom   1 (Fe ), wfc  1 (l=0 m= 1)
     state #   2: atom   1 (Fe ), wfc  2 (l=0 m= 1)
     state #   3: atom   1 (Fe ), wfc  3 (l=1 m= 1)
     state #   4: atom   1 (Fe ), wfc  3 (l=1 m= 2)
     state #   5: atom   1 (Fe ), wfc  3 (l=1 m= 3)
     state #   6: atom   1 (Fe ), wfc  4 (l=1 m= 1)
     state #   7: atom   1 (Fe ), wfc  4 (l=1 m= 2)
     state #   8: atom   1 (Fe ), wfc  4 (l=1 m= 3)
     state #   9: atom   1 (Fe ), wfc  5 (l=2 m= 1)
     state #  10: atom   1 (Fe ), wfc  5 (l=2 m= 2)
     state #  11: atom   1 (Fe ), wfc  5 (l=2 m= 3)
     state #  12: atom   1 (Fe ), wfc  5 (l=2 m= 4)
     state #  13: atom   1 (Fe ), wfc  5 (l=2 m= 5)

 k =   0.0000000000  0.0000000000  0.0500000000
==== e(   1) =   -70.33744 eV ==== 
     psi = 0.888*[#   1]+0.071*[#   2]+0.014*[#   6]+0.014*[#   7]+0.014*[#   8]
          
    |psi|^2 = 1.000
==== e(   2) =   -36.15571 eV ==== 
     psi = 0.004*[#   2]
    |psi|^2 = 0.004
==== e(   3) =   -36.15385 eV ==== 
     psi = 0.650*[#   3]+0.650*[#   4]+0.650*[#   5]+0.015*[#   6]+0.015*[#   7]
          +0.015*[#   8]
    |psi|^2 = 1.996
==== e(   4) =   -36.15385 eV ==== 
     psi = 0.325*[#   3]+0.325*[#   4]+0.325*[#   5]+0.008*[#   6]+0.008*[#   7]
          +0.008*[#   8]
    |psi|^2 = 1.000
==== e(   5) =     9.44394 eV ==== 
     psi = 0.852*[#   2]+0.095*[#   1]+0.017*[#   6]+0.017*[#   7]+0.017*[#   8]
          
    |psi|^2 = 0.998
==== e(   6) =    15.52798 eV ==== 
     psi = 0.333*[#  10]+0.333*[#  11]+0.333*[#  13]
    |psi|^2 = 1.000
==== e(   7) =    15.52798 eV ==== 
     psi = 0.333*[#  10]+0.333*[#  11]+0.333*[#  13]
    |psi|^2 = 1.000
==== e(   8) =    15.54242 eV ==== 
     psi = 0.333*[#  10]+0.333*[#  11]+0.333*[#  13]
    |psi|^2 = 1.000
==== e(   9) =    16.69097 eV ==== 
     psi = 0.500*[#   9]+0.500*[#  12]
    |psi|^2 = 1.000
==== e(  10) =    16.72255 eV ==== 
     psi = 0.500*[#   9]+0.500*[#  12]
    |psi|^2 = 1.000
==== e(  11) =    42.12037 eV ==== 

    |psi|^2 = 0.000
==== e(  12) =    42.45448 eV ==== 

    |psi|^2 = 0.000

 k =   0.0000000000 -0.0500000000  0.1000000000
==== e(   1) =   -70.33400 eV ==== 
     psi = 0.837*[#   1]+0.046*[#   6]+0.046*[#   7]+0.046*[#   8]+0.025*[#   2]
          
    |psi|^2 = 1.000
==== e(   2) =   -36.17411 eV ==== 
     psi = 0.124*[#   3]+0.124*[#   4]+0.124*[#   5]+0.012*[#   2]+0.002*[#   6]
          +0.002*[#   7]+0.002*[#   8]
    |psi|^2 = 0.388
==== e(   3) =   -36.16039 eV ==== 
     psi = 0.527*[#   3]+0.527*[#   4]+0.527*[#   5]+0.010*[#   6]+0.010*[#   7]
          +0.010*[#   8]
    |psi|^2 = 1.612
==== e(   4) =   -36.15456 eV ==== 
     psi = 0.201*[#   3]+0.201*[#   4]+0.201*[#   5]+0.006*[#   6]+0.006*[#   7]
          +0.006*[#   8]
    |psi|^2 = 0.622
==== e(   5) =     9.64715 eV ==== 
     psi = 0.699*[#   2]+0.104*[#   1]+0.064*[#   6]+0.064*[#   7]+0.064*[#   8]
          
    |psi|^2 = 0.998
==== e(   6) =    15.47794 eV ==== 
     psi = 0.333*[#  10]+0.333*[#  11]+0.333*[#  13]
    |psi|^2 = 0.999
==== e(   7) =    15.52379 eV ==== 
     psi = 0.332*[#  10]+0.332*[#  11]+0.332*[#  13]+0.002*[#   9]+0.002*[#  12]
          
    |psi|^2 = 0.999
==== e(   8) =    15.64652 eV ==== 
     psi = 0.333*[#  10]+0.333*[#  11]+0.333*[#  13]
    |psi|^2 = 1.000
==== e(   9) =    16.62745 eV ==== 
     psi = 0.498*[#   9]+0.498*[#  12]
    |psi|^2 = 1.000
==== e(  10) =    16.73693 eV ==== 
     psi = 0.500*[#   9]+0.500*[#  12]
    |psi|^2 = 1.000
==== e(  11) =    40.93275 eV ==== 
     psi = 0.003*[#   2]+0.003*[#   6]+0.003*[#   7]+0.003*[#   8]
    |psi|^2 = 0.013
==== e(  12) =    42.12133 eV ==== 
     psi = 0.003*[#   2]
    |psi|^2 = 0.004

 k =   0.0000000000 -0.1000000000  0.1500000000
==== e(   1) =   -70.32734 eV ==== 
     psi = 0.795*[#   1]+0.068*[#   6]+0.068*[#   7]+0.068*[#   8]+0.002*[#   2]
          
    |psi|^2 = 1.000
==== e(   2) =   -36.20831 eV ==== 
     psi = 0.143*[#   3]+0.143*[#   4]+0.143*[#   5]+0.018*[#   2]
    |psi|^2 = 0.448
==== e(   3) =   -36.17194 eV ==== 
     psi = 0.508*[#   3]+0.508*[#   4]+0.508*[#   5]+0.009*[#   6]+0.009*[#   7]
          +0.009*[#   8]
    |psi|^2 = 1.552
==== e(   4) =   -36.15420 eV ==== 
     psi = 0.182*[#   3]+0.182*[#   4]+0.182*[#   5]+0.006*[#   6]+0.006*[#   7]
          +0.006*[#   8]
    |psi|^2 = 0.565
==== e(   5) =    10.04429 eV ==== 
     psi = 0.534*[#   2]+0.114*[#   6]+0.114*[#   7]+0.114*[#   8]+0.111*[#   1]
          +0.002*[#   3]+0.002*[#   4]+0.002*[#   5]
    |psi|^2 = 0.997
==== e(   6) =    15.37561 eV ==== 
     psi = 0.333*[#  10]+0.333*[#  11]+0.333*[#  13]
    |psi|^2 = 0.999
==== e(   7) =    15.50174 eV ==== 
     psi = 0.322*[#  10]+0.322*[#  11]+0.322*[#  13]+0.014*[#   9]+0.014*[#  12]
          
    |psi|^2 = 0.998
==== e(   8) =    15.85687 eV ==== 
     psi = 0.333*[#  10]+0.333*[#  11]+0.333*[#  13]
    |psi|^2 = 1.000
==== e(   9) =    16.54600 eV ==== 
     psi = 0.486*[#   9]+0.486*[#  12]+0.009*[#  10]+0.009*[#  11]+0.009*[#  13]
          
    |psi|^2 = 0.999
==== e(  10) =    16.75146 eV ==== 
     psi = 0.499*[#   9]+0.499*[#  12]
    |psi|^2 = 1.000
==== e(  11) =    39.04787 eV ==== 
     psi = 0.050*[#   2]+0.013*[#   6]+0.013*[#   7]+0.013*[#   8]+0.010*[#   1]
          
    |psi|^2 = 0.102
==== e(  12) =    41.34284 eV ==== 
     psi = 0.015*[#   2]+0.003*[#   1]+0.001*[#   6]+0.001*[#   7]+0.001*[#   8]
          
    |psi|^2 = 0.022

 k =   0.0000000000 -0.1500000000  0.2000000000
==== e(   1) =   -70.31832 eV ==== 
     psi = 0.783*[#   1]+0.072*[#   6]+0.072*[#   7]+0.072*[#   8]
    |psi|^2 = 1.000
==== e(   2) =   -36.25823 eV ==== 
     psi = 0.149*[#   3]+0.149*[#   4]+0.149*[#   5]+0.019*[#   2]
    |psi|^2 = 0.465
==== e(   3) =   -36.18853 eV ==== 
     psi = 0.501*[#   3]+0.501*[#   4]+0.501*[#   5]+0.011*[#   6]+0.011*[#   7]
          +0.011*[#   8]
    |psi|^2 = 1.535
==== e(   4) =   -36.15412 eV ==== 
     psi = 0.176*[#   3]+0.176*[#   4]+0.176*[#   5]+0.007*[#   6]+0.007*[#   7]
          +0.007*[#   8]
    |psi|^2 = 0.548
==== e(   5) =    10.60976 eV ==== 
     psi = 0.412*[#   2]+0.149*[#   6]+0.149*[#   7]+0.149*[#   8]+0.110*[#   1]
          +0.004*[#   3]+0.004*[#   4]+0.004*[#   5]+0.004*[#  10]+0.004*[#  11]
          +0.004*[#  13]+0.002*[#   9]+0.002*[#  12]
    |psi|^2 = 0.997
==== e(   6) =    15.23685 eV ==== 
     psi = 0.333*[#  10]+0.333*[#  11]+0.333*[#  13]
    |psi|^2 = 0.999
==== e(   7) =    15.44756 eV ==== 
     psi = 0.293*[#  10]+0.293*[#  11]+0.293*[#  13]+0.051*[#   9]+0.051*[#  12]
          +0.002*[#   1]+0.002*[#   6]+0.002*[#   7]+0.002*[#   8]+0.001*[#   2]
          
    |psi|^2 = 0.991
==== e(   8) =    16.15594 eV ==== 
     psi = 0.333*[#  10]+0.333*[#  11]+0.333*[#  13]
    |psi|^2 = 1.000
==== e(   9) =    16.49159 eV ==== 
     psi = 0.449*[#   9]+0.449*[#  12]+0.034*[#  10]+0.034*[#  11]+0.034*[#  13]
          
    |psi|^2 = 0.999
==== e(  10) =    16.77112 eV ==== 
     psi = 0.497*[#   9]+0.497*[#  12]+0.001*[#  10]+0.001*[#  11]+0.001*[#  13]
          
    |psi|^2 = 1.000
==== e(  11) =    36.83147 eV ==== 
     psi = 0.199*[#   2]+0.035*[#   1]+0.029*[#   6]+0.029*[#   7]+0.029*[#   8]
          
    |psi|^2 = 0.326
==== e(  12) =    40.30113 eV ==== 
     psi = 0.019*[#   2]+0.008*[#   6]+0.008*[#   7]+0.008*[#   8]+0.003*[#   1]
          
    |psi|^2 = 0.048

 k =   0.0000000000 -0.2000000000  0.2500000000
==== e(   1) =   -70.30770 eV ==== 
     psi = 0.798*[#   1]+0.066*[#   6]+0.066*[#   7]+0.066*[#   8]+0.005*[#   2]
          
    |psi|^2 = 1.000
==== e(   2) =   -36.31592 eV ==== 
     psi = 0.152*[#   3]+0.152*[#   4]+0.152*[#   5]+0.017*[#   2]
    |psi|^2 = 0.476
==== e(   3) =   -36.20812 eV ==== 
     psi = 0.495*[#   3]+0.495*[#   4]+0.495*[#   5]+0.012*[#   6]+0.012*[#   7]
          +0.012*[#   8]
    |psi|^2 = 1.524
==== e(   4) =   -36.15447 eV ==== 
     psi = 0.171*[#   3]+0.171*[#   4]+0.171*[#   5]+0.007*[#   6]+0.007*[#   7]
          +0.007*[#   8]
    |psi|^2 = 0.536
==== e(   5) =    11.29469 eV ==== 
     psi = 0.330*[#   2]+0.166*[#   6]+0.166*[#   7]+0.166*[#   8]+0.097*[#   1]
          +0.013*[#  10]+0.013*[#  11]+0.013*[#  13]+0.007*[#   9]+0.007*[#  12]
          +0.007*[#   3]+0.007*[#   4]+0.007*[#   5]
    |psi|^2 = 0.997
==== e(   6) =    15.07693 eV ==== 
     psi = 0.333*[#  10]+0.333*[#  11]+0.333*[#  13]
    |psi|^2 = 0.999
==== e(   7) =    15.38583 eV ==== 
     psi = 0.243*[#  10]+0.243*[#  11]+0.243*[#  13]+0.104*[#   9]+0.104*[#  12]
          +0.007*[#   6]+0.007*[#   7]+0.007*[#   8]+0.006*[#   1]+0.003*[#   2]
          
    |psi|^2 = 0.972
==== e(   8) =    16.49743 eV ==== 
     psi = 0.391*[#   9]+0.391*[#  12]+0.072*[#  10]+0.072*[#  11]+0.072*[#  13]
          
    |psi|^2 = 0.999
==== e(   9) =    16.52290 eV ==== 
     psi = 0.333*[#  10]+0.333*[#  11]+0.333*[#  13]
    |psi|^2 = 1.000
==== e(  10) =    16.79715 eV ==== 
     psi = 0.496*[#   9]+0.496*[#  12]+0.002*[#  10]+0.002*[#  11]+0.002*[#  13]
          
    |psi|^2 = 1.001
==== e(  11) =    34.50229 eV ==== 
     psi = 0.396*[#   2]+0.058*[#   1]+0.041*[#   6]+0.041*[#   7]+0.041*[#   8]
          +0.002*[#  10]+0.002*[#  11]+0.002*[#  13]+0.001*[#   9]+0.001*[#  12]
          
    |psi|^2 = 0.588
==== e(  12) =    39.20975 eV ==== 
     psi = 0.019*[#   6]+0.019*[#   7]+0.019*[#   8]+0.015*[#   2]+0.002*[#   1]
          
    |psi|^2 = 0.076

 k =   0.0000000000 -0.2500000000  0.3000000000
==== e(   1) =   -70.29648 eV ==== 
     psi = 0.831*[#   1]+0.053*[#   6]+0.053*[#   7]+0.053*[#   8]+0.008*[#   2]
          
    |psi|^2 = 1.000
==== e(   2) =   -36.37598 eV ==== 
     psi = 0.154*[#   3]+0.154*[#   4]+0.154*[#   5]+0.013*[#   2]+0.002*[#   6]
          +0.002*[#   7]+0.002*[#   8]
    |psi|^2 = 0.484
==== e(   3) =   -36.22835 eV ==== 
     psi = 0.491*[#   3]+0.491*[#   4]+0.491*[#   5]+0.014*[#   6]+0.014*[#   7]
          +0.014*[#   8]
    |psi|^2 = 1.516
==== e(   4) =   -36.15438 eV ==== 
     psi = 0.168*[#   3]+0.168*[#   4]+0.168*[#   5]+0.007*[#   6]+0.007*[#   7]
          +0.007*[#   8]
    |psi|^2 = 0.526
==== e(   5) =    12.00016 eV ==== 
     psi = 0.275*[#   2]+0.157*[#   6]+0.157*[#   7]+0.157*[#   8]+0.072*[#   1]
          +0.038*[#  10]+0.038*[#  11]+0.038*[#  13]+0.023*[#   9]+0.023*[#  12]
          +0.007*[#   3]+0.007*[#   4]+0.007*[#   5]
    |psi|^2 = 0.997
==== e(   6) =    14.91238 eV ==== 
     psi = 0.333*[#  10]+0.333*[#  11]+0.333*[#  13]
    |psi|^2 = 0.999
==== e(   7) =    15.41773 eV ==== 
     psi = 0.177*[#  10]+0.177*[#  11]+0.177*[#  13]+0.149*[#   9]+0.149*[#  12]
          +0.022*[#   6]+0.022*[#   7]+0.022*[#   8]+0.015*[#   1]+0.009*[#   2]
          +0.001*[#   3]+0.001*[#   4]+0.001*[#   5]
    |psi|^2 = 0.921
==== e(   8) =    16.56173 eV ==== 
     psi = 0.332*[#   9]+0.332*[#  12]+0.111*[#  10]+0.111*[#  11]+0.111*[#  13]
          
    |psi|^2 = 0.998
==== e(   9) =    16.82984 eV ==== 
     psi = 0.495*[#   9]+0.495*[#  12]+0.002*[#   2]+0.001*[#  10]+0.001*[#  11]
          +0.001*[#  13]+0.001*[#   6]+0.001*[#   7]+0.001*[#   8]
    |psi|^2 = 1.000
==== e(  10) =    16.92911 eV ==== 
     psi = 0.332*[#  10]+0.332*[#  11]+0.332*[#  13]
    |psi|^2 = 1.000
==== e(  11) =    32.18157 eV ==== 
     psi = 0.546*[#   2]+0.063*[#   1]+0.045*[#   6]+0.045*[#   7]+0.045*[#   8]
          +0.005*[#  10]+0.005*[#  11]+0.005*[#  13]+0.002*[#   9]+0.002*[#  12]
          
    |psi|^2 = 0.764
==== e(  12) =    38.19394 eV ==== 
     psi = 0.030*[#   6]+0.030*[#   7]+0.030*[#   8]+0.011*[#   2]+0.001*[#   1]
          +0.001*[#   3]+0.001*[#   4]+0.001*[#   5]
    |psi|^2 = 0.105

 k =   0.0000000000 -0.3000000000  0.3500000000
==== e(   1) =   -70.28581 eV ==== 
     psi = 0.875*[#   1]+0.038*[#   6]+0.038*[#   7]+0.038*[#   8]+0.009*[#   2]
          
    |psi|^2 = 1.000
==== e(   2) =   -36.43251 eV ==== 
     psi = 0.156*[#   3]+0.156*[#   4]+0.156*[#   5]+0.010*[#   2]+0.004*[#   6]
          +0.004*[#   7]+0.004*[#   8]
    |psi|^2 = 0.489
==== e(   3) =   -36.24771 eV ==== 
     psi = 0.488*[#   3]+0.488*[#   4]+0.488*[#   5]+0.016*[#   6]+0.016*[#   7]
          +0.016*[#   8]
    |psi|^2 = 1.511
==== e(   4) =   -36.15464 eV ==== 
     psi = 0.166*[#   3]+0.166*[#   4]+0.166*[#   5]+0.007*[#   6]+0.007*[#   7]
          +0.007*[#   8]
    |psi|^2 = 0.519
==== e(   5) =    12.56039 eV ==== 
     psi = 0.229*[#   2]+0.112*[#   6]+0.112*[#   7]+0.112*[#   8]+0.086*[#  10]
          +0.086*[#  11]+0.086*[#  13]+0.059*[#   9]+0.059*[#  12]+0.038*[#   1]
          +0.006*[#   3]+0.006*[#   4]+0.006*[#   5]
    |psi|^2 = 0.997
==== e(   6) =    14.75915 eV ==== 
     psi = 0.333*[#  10]+0.333*[#  11]+0.333*[#  13]
    |psi|^2 = 0.998
==== e(   7) =    15.70092 eV ==== 
     psi = 0.179*[#   9]+0.179*[#  12]+0.089*[#  10]+0.089*[#  11]+0.089*[#  13]
          +0.048*[#   6]+0.048*[#   7]+0.048*[#   8]+0.027*[#   2]+0.022*[#   1]
          +0.002*[#   3]+0.002*[#   4]+0.002*[#   5]
    |psi|^2 = 0.826
==== e(   8) =    16.66840 eV ==== 
     psi = 0.270*[#   9]+0.270*[#  12]+0.146*[#  10]+0.146*[#  11]+0.146*[#  13]
          +0.003*[#   6]+0.003*[#   7]+0.003*[#   8]
    |psi|^2 = 0.989
==== e(   9) =    16.87687 eV ==== 
     psi = 0.488*[#   9]+0.488*[#  12]+0.006*[#   6]+0.006*[#   7]+0.006*[#   8]
          +0.004*[#   2]+0.001*[#   1]
    |psi|^2 = 1.000
==== e(  10) =    17.33778 eV ==== 
     psi = 0.332*[#  10]+0.332*[#  11]+0.332*[#  13]+0.001*[#   6]+0.001*[#   7]
          +0.001*[#   8]
    |psi|^2 = 1.000
==== e(  11) =    29.95242 eV ==== 
     psi = 0.635*[#   2]+0.053*[#   1]+0.044*[#   6]+0.044*[#   7]+0.044*[#   8]
          +0.010*[#  10]+0.010*[#  11]+0.010*[#  13]+0.003*[#   9]+0.003*[#  12]
          
    |psi|^2 = 0.856
==== e(  12) =    37.32094 eV ==== 
     psi = 0.039*[#   6]+0.039*[#   7]+0.039*[#   8]+0.008*[#   2]+0.002*[#   3]
          +0.002*[#   4]+0.002*[#   5]
    |psi|^2 = 0.129

 k =   0.0000000000 -0.3500000000  0.4000000000
==== e(   1) =   -70.27670 eV ==== 
     psi = 0.923*[#   1]+0.021*[#   6]+0.021*[#   7]+0.021*[#   8]+0.009*[#   2]
          +0.001*[#  10]+0.001*[#  11]+0.001*[#  13]
    |psi|^2 = 1.000
==== e(   2) =   -36.48031 eV ==== 
     psi = 0.158*[#   3]+0.158*[#   4]+0.158*[#   5]+0.006*[#   2]+0.004*[#   6]
          +0.004*[#   7]+0.004*[#   8]
    |psi|^2 = 0.492
==== e(   3) =   -36.26399 eV ==== 
     psi = 0.487*[#   3]+0.487*[#   4]+0.487*[#   5]+0.016*[#   6]+0.016*[#   7]
          +0.016*[#   8]
    |psi|^2 = 1.508
==== e(   4) =   -36.15452 eV ==== 
     psi = 0.164*[#   3]+0.164*[#   4]+0.164*[#   5]+0.007*[#   6]+0.007*[#   7]
          +0.007*[#   8]
    |psi|^2 = 0.513
==== e(   5) =    12.85213 eV ==== 
     psi = 0.185*[#   2]+0.137*[#  10]+0.137*[#  11]+0.137*[#  13]+0.108*[#   9]
          +0.108*[#  12]+0.055*[#   6]+0.055*[#   7]+0.055*[#   8]+0.014*[#   1]
          +0.003*[#   3]+0.003*[#   4]+0.003*[#   5]
    |psi|^2 = 0.998
==== e(   6) =    14.63119 eV ==== 
     psi = 0.333*[#  10]+0.333*[#  11]+0.333*[#  13]
    |psi|^2 = 0.998
==== e(   7) =    16.23633 eV ==== 
     psi = 0.274*[#   9]+0.274*[#  12]+0.056*[#   6]+0.056*[#   7]+0.056*[#   8]
          +0.038*[#   2]+0.014*[#   1]+0.006*[#  10]+0.006*[#  11]+0.006*[#  13]
          +0.003*[#   3]+0.003*[#   4]+0.003*[#   5]
    |psi|^2 = 0.797
==== e(   8) =    16.78161 eV ==== 
     psi = 0.295*[#   9]+0.295*[#  12]+0.124*[#  10]+0.124*[#  11]+0.124*[#  13]
          +0.006*[#   6]+0.006*[#   7]+0.006*[#   8]
    |psi|^2 = 0.981
==== e(   9) =    17.04450 eV ==== 
     psi = 0.318*[#   9]+0.318*[#  12]+0.063*[#   6]+0.063*[#   7]+0.063*[#   8]
          +0.047*[#  10]+0.047*[#  11]+0.047*[#  13]+0.017*[#   2]+0.006*[#   1]
          +0.003*[#   3]+0.003*[#   4]+0.003*[#   5]
    |psi|^2 = 0.998
==== e(  10) =    17.70538 eV ==== 
     psi = 0.332*[#  10]+0.332*[#  11]+0.332*[#  13]+0.001*[#   6]+0.001*[#   7]
          +0.001*[#   8]
    |psi|^2 = 1.000
==== e(  11) =    27.90221 eV ==== 
     psi = 0.690*[#   2]+0.039*[#   6]+0.039*[#   7]+0.039*[#   8]+0.038*[#   1]
          +0.017*[#  10]+0.017*[#  11]+0.017*[#  13]+0.005*[#   9]+0.005*[#  12]
          
    |psi|^2 = 0.904
==== e(  12) =    36.63414 eV ==== 
     psi = 0.045*[#   6]+0.045*[#   7]+0.045*[#   8]+0.006*[#   2]+0.002*[#   3]
          +0.002*[#   4]+0.002*[#   5]
    |psi|^2 = 0.149

 k =   0.0000000000 -0.4000000000  0.4500000000
==== e(   1) =   -70.27008 eV ==== 
     psi = 0.961*[#   1]+0.009*[#   2]+0.008*[#   6]+0.008*[#   7]+0.008*[#   8]
          +0.002*[#  10]+0.002*[#  11]+0.002*[#  13]
    |psi|^2 = 1.000
==== e(   2) =   -36.51488 eV ==== 
     psi = 0.160*[#   3]+0.160*[#   4]+0.160*[#   5]+0.004*[#   6]+0.004*[#   7]
          +0.004*[#   8]+0.003*[#   2]
    |psi|^2 = 0.495
==== e(   3) =   -36.27606 eV ==== 
     psi = 0.487*[#   3]+0.487*[#   4]+0.487*[#   5]+0.015*[#   6]+0.015*[#   7]
          +0.015*[#   8]
    |psi|^2 = 1.505
==== e(   4) =   -36.15425 eV ==== 
     psi = 0.163*[#   3]+0.163*[#   4]+0.163*[#   5]+0.006*[#   6]+0.006*[#   7]
          +0.006*[#   8]
    |psi|^2 = 0.508
==== e(   5) =    12.94316 eV ==== 
     psi = 0.166*[#  10]+0.166*[#  11]+0.166*[#  13]+0.154*[#   2]+0.143*[#   9]
          +0.143*[#  12]+0.018*[#   6]+0.018*[#   7]+0.018*[#   8]+0.004*[#   1]
          
    |psi|^2 = 0.999
==== e(   6) =    14.53954 eV ==== 
     psi = 0.333*[#  10]+0.333*[#  11]+0.333*[#  13]
    |psi|^2 = 0.998
==== e(   7) =    16.59698 eV ==== 
     psi = 0.390*[#   9]+0.390*[#  12]+0.024*[#  10]+0.024*[#  11]+0.024*[#  13]
          +0.020*[#   6]+0.020*[#   7]+0.020*[#   8]+0.017*[#   2]+0.002*[#   1]
          
    |psi|^2 = 0.930
==== e(   8) =    16.81517 eV ==== 
     psi = 0.379*[#   9]+0.379*[#  12]+0.073*[#  10]+0.073*[#  11]+0.073*[#  13]
          +0.004*[#   6]+0.004*[#   7]+0.004*[#   8]
    |psi|^2 = 0.989
==== e(   9) =    17.65101 eV ==== 
     psi = 0.215*[#   6]+0.215*[#   7]+0.215*[#   8]+0.080*[#   9]+0.080*[#  12]
          +0.042*[#  10]+0.042*[#  11]+0.042*[#  13]+0.036*[#   2]+0.007*[#   1]
          +0.007*[#   3]+0.007*[#   4]+0.007*[#   5]
    |psi|^2 = 0.996
==== e(  10) =    17.98566 eV ==== 
     psi = 0.333*[#  10]+0.333*[#  11]+0.333*[#  13]
    |psi|^2 = 1.000
==== e(  11) =    26.17609 eV ==== 
     psi = 0.743*[#   2]+0.027*[#  10]+0.027*[#  11]+0.027*[#  13]+0.027*[#   6]
          +0.027*[#   7]+0.027*[#   8]+0.024*[#   1]+0.007*[#   9]+0.007*[#  12]
          
    |psi|^2 = 0.943
==== e(  12) =    36.16134 eV ==== 
     psi = 0.051*[#   6]+0.051*[#   7]+0.051*[#   8]+0.005*[#   2]+0.002*[#   3]
          +0.002*[#   4]+0.002*[#   5]
    |psi|^2 = 0.163

 k =   0.0000000000 -0.4500000000  0.5000000000
==== e(   1) =   -70.26658 eV ==== 
     psi = 0.981*[#   1]+0.009*[#   2]+0.002*[#  10]+0.002*[#  11]+0.002*[#  13]
          
    |psi|^2 = 1.000
==== e(   2) =   -36.53268 eV ==== 
     psi = 0.162*[#   3]+0.162*[#   4]+0.162*[#   5]+0.003*[#   6]+0.003*[#   7]
          +0.003*[#   8]
    |psi|^2 = 0.498
==== e(   3) =   -36.28224 eV ==== 
     psi = 0.487*[#   3]+0.487*[#   4]+0.487*[#   5]+0.014*[#   6]+0.014*[#   7]
          +0.014*[#   8]
    |psi|^2 = 1.502
==== e(   4) =   -36.15412 eV ==== 
     psi = 0.162*[#   3]+0.162*[#   4]+0.162*[#   5]+0.006*[#   6]+0.006*[#   7]
          +0.006*[#   8]
    |psi|^2 = 0.503
==== e(   5) =    12.95750 eV ==== 
     psi = 0.177*[#  10]+0.177*[#  11]+0.177*[#  13]+0.160*[#   9]+0.160*[#  12]
          +0.139*[#   2]+0.002*[#   6]+0.002*[#   7]+0.002*[#   8]+0.002*[#   1]
          
    |psi|^2 = 0.999
==== e(   6) =    14.49180 eV ==== 
     psi = 0.333*[#  10]+0.333*[#  11]+0.333*[#  13]
    |psi|^2 = 0.998
==== e(   7) =    16.73277 eV ==== 
     psi = 0.386*[#   9]+0.386*[#  12]+0.061*[#  10]+0.061*[#  11]+0.061*[#  13]
          +0.008*[#   2]+0.006*[#   6]+0.006*[#   7]+0.006*[#   8]
    |psi|^2 = 0.979
==== e(   8) =    16.79665 eV ==== 
     psi = 0.409*[#   9]+0.409*[#  12]+0.050*[#  10]+0.050*[#  11]+0.050*[#  13]
          +0.005*[#   6]+0.005*[#   7]+0.005*[#   8]+0.002*[#   2]
    |psi|^2 = 0.985
==== e(   9) =    18.13801 eV ==== 
     psi = 0.333*[#  10]+0.333*[#  11]+0.333*[#  13]
    |psi|^2 = 1.000
==== e(  10) =    18.29374 eV ==== 
     psi = 0.144*[#   6]+0.144*[#   7]+0.144*[#   8]+0.035*[#   9]+0.035*[#  12]
          +0.008*[#   2]+0.005*[#  10]+0.005*[#  11]+0.005*[#  13]+0.003*[#   3]
          +0.003*[#   4]+0.003*[#   5]
    |psi|^2 = 0.536
==== e(  11) =    25.08416 eV ==== 
     psi = 0.803*[#   2]+0.158*[#   6]+0.158*[#   7]+0.158*[#   8]+0.038*[#  10]
          +0.038*[#  11]+0.038*[#  13]+0.015*[#   1]+0.010*[#   9]+0.010*[#  12]
          +0.003*[#   3]+0.003*[#   4]+0.003*[#   5]
    |psi|^2 = 1.436
==== e(  12) =    35.92039 eV ==== 
     psi = 0.053*[#   6]+0.053*[#   7]+0.053*[#   8]+0.004*[#   2]+0.002*[#   3]
          +0.002*[#   4]+0.002*[#   5]
    |psi|^2 = 0.170

 k =  -0.0500000000  0.0500000000  0.0500000000
==== e(   1) =   -70.33571 eV ==== 
     psi = 0.858*[#   1]+0.042*[#   2]+0.033*[#   6]+0.033*[#   7]+0.033*[#   8]
          
    |psi|^2 = 1.000
==== e(   2) =   -36.16841 eV ==== 
     psi = 0.217*[#   3]+0.217*[#   4]+0.217*[#   5]+0.014*[#   6]+0.014*[#   7]
          +0.014*[#   8]+0.009*[#   2]
    |psi|^2 = 0.703
==== e(   3) =   -36.15391 eV ==== 
     psi = 0.266*[#   3]+0.266*[#   4]+0.266*[#   5]+0.006*[#   6]+0.006*[#   7]
          +0.006*[#   8]
    |psi|^2 = 0.815
==== e(   4) =   -36.15391 eV ==== 
     psi = 0.384*[#   3]+0.384*[#   4]+0.384*[#   5]+0.009*[#   6]+0.009*[#   7]
          +0.009*[#   8]
    |psi|^2 = 1.179
==== e(   5) =     9.54591 eV ==== 
     psi = 0.766*[#   2]+0.100*[#   1]+0.043*[#   6]+0.043*[#   7]+0.043*[#   8]
          
    |psi|^2 = 0.998
==== e(   6) =    15.49893 eV ==== 
     psi = 0.333*[#  10]+0.333*[#  11]+0.333*[#  13]+0.014*[#   6]+0.014*[#   7]
          +0.014*[#   8]
    |psi|^2 = 1.043
==== e(   7) =    15.49893 eV ==== 
     psi = 0.333*[#  10]+0.333*[#  11]+0.333*[#  13]
    |psi|^2 = 0.999
==== e(   8) =    15.62404 eV ==== 
     psi = 0.333*[#  10]+0.333*[#  11]+0.333*[#  13]
    |psi|^2 = 1.000
==== e(   9) =    16.69509 eV ==== 
     psi = 0.499*[#   9]+0.499*[#  12]
    |psi|^2 = 1.000
==== e(  10) =    16.69509 eV ==== 
     psi = 0.499*[#   9]+0.499*[#  12]
    |psi|^2 = 1.000
==== e(  11) =    41.72615 eV ==== 
     psi = 0.001*[#   6]+0.001*[#   7]+0.001*[#   8]
    |psi|^2 = 0.004
==== e(  12) =    41.72615 eV ==== 
     psi = 0.002*[#   6]+0.002*[#   7]+0.002*[#   8]
    |psi|^2 = 0.005

 k =  -0.0500000000 -0.0500000000  0.1500000000
==== e(   1) =   -70.32894 eV ==== 
     psi = 0.801*[#   1]+0.065*[#   6]+0.065*[#   7]+0.065*[#   8]+0.004*[#   2]
          
    |psi|^2 = 1.000
==== e(   2) =   -36.19774 eV ==== 
     psi = 0.133*[#   3]+0.133*[#   4]+0.133*[#   5]+0.016*[#   2]+0.007*[#   6]
          +0.007*[#   7]+0.007*[#   8]
    |psi|^2 = 0.437
==== e(   3) =   -36.16660 eV ==== 
     psi = 0.518*[#   3]+0.518*[#   4]+0.518*[#   5]+0.009*[#   6]+0.009*[#   7]
          +0.009*[#   8]
    |psi|^2 = 1.581
==== e(   4) =   -36.15928 eV ==== 
     psi = 0.258*[#   3]+0.258*[#   4]+0.258*[#   5]+0.007*[#   6]+0.007*[#   7]
          +0.007*[#   8]+0.001*[#   2]
    |psi|^2 = 0.797
==== e(   5) =     9.94666 eV ==== 
     psi = 0.566*[#   2]+0.110*[#   1]+0.105*[#   6]+0.105*[#   7]+0.105*[#   8]
          +0.002*[#   3]+0.002*[#   4]+0.002*[#   5]
    |psi|^2 = 0.997
==== e(   6) =    15.44112 eV ==== 
     psi = 0.332*[#  10]+0.332*[#  11]+0.332*[#  13]+0.010*[#   6]+0.010*[#   7]
          +0.010*[#   8]+0.001*[#   9]+0.001*[#  12]
    |psi|^2 = 1.028
==== e(   7) =    15.48843 eV ==== 
     psi = 0.329*[#  10]+0.329*[#  11]+0.329*[#  13]+0.006*[#   9]+0.006*[#  12]
          
    |psi|^2 = 0.999
==== e(   8) =    15.79132 eV ==== 
     psi = 0.333*[#  10]+0.333*[#  11]+0.333*[#  13]
    |psi|^2 = 0.999
==== e(   9) =    16.53341 eV ==== 
     psi = 0.494*[#   9]+0.494*[#  12]+0.004*[#  10]+0.004*[#  11]+0.004*[#  13]
          
    |psi|^2 = 0.999
==== e(  10) =    16.76876 eV ==== 
     psi = 0.498*[#   9]+0.498*[#  12]
    |psi|^2 = 1.000
==== e(  11) =    39.72549 eV ==== 
     psi = 0.011*[#   6]+0.011*[#   7]+0.011*[#   8]
    |psi|^2 = 0.036
==== e(  12) =    41.03318 eV ==== 
     psi = 0.039*[#   2]+0.008*[#   1]+0.003*[#   6]+0.003*[#   7]+0.003*[#   8]
          
    |psi|^2 = 0.056

 k =  -0.0500000000 -0.1000000000  0.2000000000
==== e(   1) =   -70.32114 eV ==== 
     psi = 0.782*[#   1]+0.072*[#   6]+0.072*[#   7]+0.072*[#   8]
    |psi|^2 = 1.000
==== e(   2) =   -36.23934 eV ==== 
     psi = 0.140*[#   3]+0.140*[#   4]+0.140*[#   5]+0.019*[#   2]+0.004*[#   6]
          +0.004*[#   7]+0.004*[#   8]
    |psi|^2 = 0.451
==== e(   3) =   -36.17979 eV ==== 
     psi = 0.507*[#   3]+0.507*[#   4]+0.507*[#   5]+0.010*[#   6]+0.010*[#   7]
          +0.010*[#   8]
    |psi|^2 = 1.549
==== e(   4) =   -36.16067 eV ==== 
     psi = 0.220*[#   3]+0.220*[#   4]+0.220*[#   5]+0.008*[#   6]+0.008*[#   7]
          +0.008*[#   8]
    |psi|^2 = 0.684
==== e(   5) =    10.42739 eV ==== 
     psi = 0.444*[#   2]+0.141*[#   6]+0.141*[#   7]+0.141*[#   8]+0.111*[#   1]
          +0.004*[#   3]+0.004*[#   4]+0.004*[#   5]+0.002*[#  10]+0.002*[#  11]
          +0.002*[#  13]+0.002*[#   9]+0.002*[#  12]
    |psi|^2 = 0.997
==== e(   6) =    15.33332 eV ==== 
     psi = 0.331*[#  10]+0.331*[#  11]+0.331*[#  13]+0.007*[#   6]+0.007*[#   7]
          +0.007*[#   8]+0.002*[#   9]+0.002*[#  12]
    |psi|^2 = 1.019
==== e(   7) =    15.44018 eV ==== 
     psi = 0.312*[#  10]+0.312*[#  11]+0.312*[#  13]+0.029*[#   9]+0.029*[#  12]
          
    |psi|^2 = 0.997
==== e(   8) =    16.04861 eV ==== 
     psi = 0.332*[#  10]+0.332*[#  11]+0.332*[#  13]
    |psi|^2 = 0.998
==== e(   9) =    16.44564 eV ==== 
     psi = 0.471*[#   9]+0.471*[#  12]+0.019*[#  10]+0.019*[#  11]+0.019*[#  13]
          
    |psi|^2 = 0.999
==== e(  10) =    16.80087 eV ==== 
     psi = 0.495*[#   9]+0.495*[#  12]+0.002*[#  10]+0.002*[#  11]+0.002*[#  13]
          +0.001*[#   2]
    |psi|^2 = 0.999
==== e(  11) =    37.92593 eV ==== 
     psi = 0.055*[#   2]+0.035*[#   6]+0.035*[#   7]+0.035*[#   8]+0.010*[#   1]
          
    |psi|^2 = 0.174
==== e(  12) =    39.79128 eV ==== 
     psi = 0.093*[#   2]+0.017*[#   1]+0.008*[#   6]+0.008*[#   7]+0.008*[#   8]
          
    |psi|^2 = 0.136

 k =  -0.0500000000 -0.1500000000  0.2500000000
==== e(   1) =   -70.31134 eV ==== 
     psi = 0.788*[#   1]+0.069*[#   6]+0.069*[#   7]+0.069*[#   8]+0.004*[#   2]
          
    |psi|^2 = 1.000
==== e(   2) =   -36.29134 eV ==== 
     psi = 0.145*[#   3]+0.145*[#   4]+0.145*[#   5]+0.018*[#   2]+0.002*[#   6]
          +0.002*[#   7]+0.002*[#   8]
    |psi|^2 = 0.460
==== e(   3) =   -36.19872 eV ==== 
     psi = 0.501*[#   3]+0.501*[#   4]+0.501*[#   5]+0.011*[#   6]+0.011*[#   7]
          +0.011*[#   8]
    |psi|^2 = 1.538
==== e(   4) =   -36.16124 eV ==== 
     psi = 0.199*[#   3]+0.199*[#   4]+0.199*[#   5]+0.008*[#   6]+0.008*[#   7]
          +0.008*[#   8]
    |psi|^2 = 0.622
==== e(   5) =    11.05475 eV ==== 
     psi = 0.354*[#   2]+0.164*[#   6]+0.164*[#   7]+0.164*[#   8]+0.104*[#   1]
          +0.007*[#  10]+0.007*[#  11]+0.007*[#  13]+0.006*[#   3]+0.006*[#   4]
          +0.006*[#   5]+0.005*[#   9]+0.005*[#  12]
    |psi|^2 = 0.997
==== e(   6) =    15.18522 eV ==== 
     psi = 0.330*[#  10]+0.330*[#  11]+0.330*[#  13]+0.005*[#   6]+0.005*[#   7]
          +0.005*[#   8]+0.004*[#   9]+0.004*[#  12]
    |psi|^2 = 1.013
==== e(   7) =    15.36819 eV ==== 
     psi = 0.273*[#  10]+0.273*[#  11]+0.273*[#  13]+0.078*[#   9]+0.078*[#  12]
          +0.003*[#   6]+0.003*[#   7]+0.003*[#   8]+0.002*[#   1]+0.001*[#   2]
          
    |psi|^2 = 0.988
==== e(   8) =    16.38240 eV ==== 
     psi = 0.269*[#  10]+0.269*[#  11]+0.269*[#  13]+0.094*[#   9]+0.094*[#  12]
          
    |psi|^2 = 0.998
==== e(   9) =    16.41872 eV ==== 
     psi = 0.326*[#   9]+0.326*[#  12]+0.115*[#  10]+0.115*[#  11]+0.115*[#  13]
          
    |psi|^2 = 0.999
==== e(  10) =    16.83704 eV ==== 
     psi = 0.492*[#   9]+0.492*[#  12]+0.003*[#  10]+0.003*[#  11]+0.003*[#  13]
          +0.002*[#   2]
    |psi|^2 = 0.998
==== e(  11) =    35.72495 eV ==== 
     psi = 0.226*[#   2]+0.062*[#   6]+0.062*[#   7]+0.062*[#   8]+0.036*[#   1]
          +0.001*[#   3]+0.001*[#   4]+0.001*[#   5]+0.001*[#  10]+0.001*[#  11]
          +0.001*[#  13]
    |psi|^2 = 0.457
==== e(  12) =    38.70405 eV ==== 
     psi = 0.095*[#   2]+0.025*[#   6]+0.025*[#   7]+0.025*[#   8]+0.016*[#   1]
          
    |psi|^2 = 0.189

 k =  -0.0500000000 -0.2000000000  0.3000000000
==== e(   1) =   -70.30046 eV ==== 
     psi = 0.813*[#   1]+0.059*[#   6]+0.059*[#   7]+0.059*[#   8]+0.008*[#   2]
          
    |psi|^2 = 1.000
==== e(   2) =   -36.34877 eV ==== 
     psi = 0.148*[#   3]+0.148*[#   4]+0.148*[#   5]+0.015*[#   2]+0.002*[#   6]
          +0.002*[#   7]+0.002*[#   8]
    |psi|^2 = 0.467
==== e(   3) =   -36.21962 eV ==== 
     psi = 0.498*[#   3]+0.498*[#   4]+0.498*[#   5]+0.013*[#   6]+0.013*[#   7]
          +0.013*[#   8]
    |psi|^2 = 1.533
==== e(   4) =   -36.16134 eV ==== 
     psi = 0.186*[#   3]+0.186*[#   4]+0.186*[#   5]+0.008*[#   6]+0.008*[#   7]
          +0.008*[#   8]
    |psi|^2 = 0.584
==== e(   5) =    11.75970 eV ==== 
     psi = 0.291*[#   2]+0.168*[#   6]+0.168*[#   7]+0.168*[#   8]+0.084*[#   1]
          +0.022*[#  10]+0.022*[#  11]+0.022*[#  13]+0.015*[#   9]+0.015*[#  12]
          +0.007*[#   3]+0.007*[#   4]+0.007*[#   5]
    |psi|^2 = 0.997
==== e(   6) =    15.02219 eV ==== 
     psi = 0.329*[#  10]+0.329*[#  11]+0.329*[#  13]+0.006*[#   9]+0.006*[#  12]
          +0.004*[#   6]+0.004*[#   7]+0.004*[#   8]
    |psi|^2 = 1.009
==== e(   7) =    15.31531 eV ==== 
     psi = 0.217*[#  10]+0.217*[#  11]+0.217*[#  13]+0.133*[#   9]+0.133*[#  12]
          +0.010*[#   6]+0.010*[#   7]+0.010*[#   8]+0.008*[#   1]+0.004*[#   2]
          
    |psi|^2 = 0.959
==== e(   8) =    16.44814 eV ==== 
     psi = 0.355*[#   9]+0.355*[#  12]+0.096*[#  10]+0.096*[#  11]+0.096*[#  13]
          
    |psi|^2 = 0.999
==== e(   9) =    16.78618 eV ==== 
     psi = 0.306*[#  10]+0.306*[#  11]+0.306*[#  13]+0.036*[#   9]+0.036*[#  12]
          +0.002*[#   6]+0.002*[#   7]+0.002*[#   8]
    |psi|^2 = 1.000
==== e(  10) =    16.88700 eV ==== 
     psi = 0.454*[#   9]+0.454*[#  12]+0.024*[#  10]+0.024*[#  11]+0.024*[#  13]
          +0.004*[#   2]+0.002*[#   6]+0.002*[#   7]+0.002*[#   8]+0.002*[#   1]
          
    |psi|^2 = 0.994
==== e(  11) =    33.41196 eV ==== 
     psi = 0.403*[#   2]+0.079*[#   6]+0.079*[#   7]+0.079*[#   8]+0.051*[#   1]
          +0.003*[#  10]+0.003*[#  11]+0.003*[#  13]+0.001*[#   9]+0.001*[#  12]
          +0.001*[#   3]+0.001*[#   4]+0.001*[#   5]
    |psi|^2 = 0.709
==== e(  12) =    37.72821 eV ==== 
     psi = 0.079*[#   2]+0.051*[#   6]+0.051*[#   7]+0.051*[#   8]+0.011*[#   1]
          +0.002*[#   3]+0.002*[#   4]+0.002*[#   5]
    |psi|^2 = 0.249

 k =  -0.0500000000 -0.2500000000  0.3500000000
==== e(   1) =   -70.28955 eV ==== 
     psi = 0.854*[#   1]+0.045*[#   6]+0.045*[#   7]+0.045*[#   8]+0.009*[#   2]
          
    |psi|^2 = 1.000
==== e(   2) =   -36.40548 eV ==== 
     psi = 0.150*[#   3]+0.150*[#   4]+0.150*[#   5]+0.012*[#   2]+0.003*[#   6]
          +0.003*[#   7]+0.003*[#   8]
    |psi|^2 = 0.474
==== e(   3) =   -36.24057 eV ==== 
     psi = 0.494*[#   3]+0.494*[#   4]+0.494*[#   5]+0.015*[#   6]+0.015*[#   7]
          +0.015*[#   8]
    |psi|^2 = 1.527
==== e(   4) =   -36.16136 eV ==== 
     psi = 0.178*[#   3]+0.178*[#   4]+0.178*[#   5]+0.008*[#   6]+0.008*[#   7]
          +0.008*[#   8]
    |psi|^2 = 0.557
==== e(   5) =    12.40953 eV ==== 
     psi = 0.244*[#   2]+0.141*[#   6]+0.141*[#   7]+0.141*[#   8]+0.058*[#  10]
          +0.058*[#  11]+0.058*[#  13]+0.054*[#   1]+0.040*[#   9]+0.040*[#  12]
          +0.007*[#   3]+0.007*[#   4]+0.007*[#   5]
    |psi|^2 = 0.997
==== e(   6) =    14.86340 eV ==== 
     psi = 0.329*[#  10]+0.329*[#  11]+0.329*[#  13]+0.005*[#   9]+0.005*[#  12]
          +0.003*[#   6]+0.003*[#   7]+0.003*[#   8]
    |psi|^2 = 1.007
==== e(   7) =    15.40194 eV ==== 
     psi = 0.177*[#   9]+0.177*[#  12]+0.143*[#  10]+0.143*[#  11]+0.143*[#  13]
          +0.027*[#   6]+0.027*[#   7]+0.027*[#   8]+0.015*[#   1]+0.013*[#   2]
          +0.001*[#   3]+0.001*[#   4]+0.001*[#   5]
    |psi|^2 = 0.894
==== e(   8) =    16.54889 eV ==== 
     psi = 0.293*[#   9]+0.293*[#  12]+0.135*[#  10]+0.135*[#  11]+0.135*[#  13]
          +0.001*[#   6]+0.001*[#   7]+0.001*[#   8]
    |psi|^2 = 0.995
==== e(   9) =    16.92503 eV ==== 
     psi = 0.460*[#   9]+0.460*[#  12]+0.020*[#  10]+0.020*[#  11]+0.020*[#  13]
          +0.006*[#   2]+0.004*[#   6]+0.004*[#   7]+0.004*[#   8]+0.001*[#   1]
          
    |psi|^2 = 1.000
==== e(  10) =    17.24190 eV ==== 
     psi = 0.304*[#  10]+0.304*[#  11]+0.304*[#  13]+0.023*[#   9]+0.023*[#  12]
          +0.005*[#   6]+0.005*[#   7]+0.005*[#   8]+0.004*[#   2]+0.002*[#   1]
          
    |psi|^2 = 0.981
==== e(  11) =    31.13099 eV ==== 
     psi = 0.526*[#   2]+0.084*[#   6]+0.084*[#   7]+0.084*[#   8]+0.050*[#   1]
          +0.007*[#  10]+0.007*[#  11]+0.007*[#  13]+0.003*[#   9]+0.003*[#  12]
          +0.001*[#   3]+0.001*[#   4]+0.001*[#   5]
    |psi|^2 = 0.856
==== e(  12) =    36.86864 eV ==== 
     psi = 0.078*[#   6]+0.078*[#   7]+0.078*[#   8]+0.065*[#   2]+0.008*[#   1]
          +0.003*[#   3]+0.003*[#   4]+0.003*[#   5]
    |psi|^2 = 0.316

 k =  -0.0500000000 -0.3000000000  0.4000000000
==== e(   1) =   -70.27968 eV ==== 
     psi = 0.901*[#   1]+0.029*[#   6]+0.029*[#   7]+0.029*[#   8]+0.009*[#   2]
          
    |psi|^2 = 1.000
==== e(   2) =   -36.45626 eV ==== 
     psi = 0.153*[#   3]+0.153*[#   4]+0.153*[#   5]+0.008*[#   2]+0.004*[#   6]
          +0.004*[#   7]+0.004*[#   8]
    |psi|^2 = 0.479
==== e(   3) =   -36.25949 eV ==== 
     psi = 0.492*[#   3]+0.492*[#   4]+0.492*[#   5]+0.015*[#   6]+0.015*[#   7]
          +0.015*[#   8]
    |psi|^2 = 1.522
==== e(   4) =   -36.16119 eV ==== 
     psi = 0.172*[#   3]+0.172*[#   4]+0.172*[#   5]+0.007*[#   6]+0.007*[#   7]
          +0.007*[#   8]
    |psi|^2 = 0.539
==== e(   5) =    12.83326 eV ==== 
     psi = 0.197*[#   2]+0.113*[#  10]+0.113*[#  11]+0.113*[#  13]+0.086*[#   9]
          +0.086*[#  12]+0.085*[#   6]+0.085*[#   7]+0.085*[#   8]+0.023*[#   1]
          +0.004*[#   3]+0.004*[#   4]+0.004*[#   5]
    |psi|^2 = 0.998
==== e(   6) =    14.72467 eV ==== 
     psi = 0.330*[#  10]+0.330*[#  11]+0.330*[#  13]+0.003*[#   9]+0.003*[#  12]
          +0.003*[#   6]+0.003*[#   7]+0.003*[#   8]
    |psi|^2 = 1.005
==== e(   7) =    15.72947 eV ==== 
     psi = 0.227*[#   9]+0.227*[#  12]+0.060*[#  10]+0.060*[#  11]+0.060*[#  13]
          +0.045*[#   6]+0.045*[#   7]+0.045*[#   8]+0.028*[#   2]+0.016*[#   1]
          +0.002*[#   3]+0.002*[#   4]+0.002*[#   5]
    |psi|^2 = 0.820
==== e(   8) =    16.67627 eV ==== 
     psi = 0.259*[#   9]+0.259*[#  12]+0.152*[#  10]+0.152*[#  11]+0.152*[#  13]
          +0.004*[#   6]+0.004*[#   7]+0.004*[#   8]
    |psi|^2 = 0.988
==== e(   9) =    17.04777 eV ==== 
     psi = 0.399*[#   9]+0.399*[#  12]+0.038*[#  10]+0.038*[#  11]+0.038*[#  13]
          +0.022*[#   6]+0.022*[#   7]+0.022*[#   8]+0.014*[#   2]+0.003*[#   1]
          
    |psi|^2 = 0.999
==== e(  10) =    17.69721 eV ==== 
     psi = 0.290*[#  10]+0.290*[#  11]+0.290*[#  13]+0.020*[#   9]+0.020*[#  12]
          +0.011*[#   6]+0.011*[#   7]+0.011*[#   8]+0.009*[#   2]+0.003*[#   1]
          
    |psi|^2 = 0.956
==== e(  11) =    28.97337 eV ==== 
     psi = 0.603*[#   2]+0.084*[#   6]+0.084*[#   7]+0.084*[#   8]+0.040*[#   1]
          +0.013*[#  10]+0.013*[#  11]+0.013*[#  13]+0.004*[#   9]+0.004*[#  12]
          
    |psi|^2 = 0.946
==== e(  12) =    36.15229 eV ==== 
     psi = 0.100*[#   6]+0.100*[#   7]+0.100*[#   8]+0.052*[#   2]+0.005*[#   1]
          +0.003*[#   3]+0.003*[#   4]+0.003*[#   5]
    |psi|^2 = 0.370

 k =  -0.0500000000 -0.3500000000  0.4500000000
==== e(   1) =   -70.27186 eV ==== 
     psi = 0.944*[#   1]+0.014*[#   6]+0.014*[#   7]+0.014*[#   8]+0.009*[#   2]
          +0.001*[#  10]+0.001*[#  11]+0.001*[#  13]
    |psi|^2 = 1.000
==== e(   2) =   -36.49645 eV ==== 
     psi = 0.156*[#   3]+0.156*[#   4]+0.156*[#   5]+0.005*[#   2]+0.004*[#   6]
          +0.004*[#   7]+0.004*[#   8]
    |psi|^2 = 0.485
==== e(   3) =   -36.27455 eV ==== 
     psi = 0.491*[#   3]+0.491*[#   4]+0.491*[#   5]+0.014*[#   6]+0.014*[#   7]
          +0.014*[#   8]
    |psi|^2 = 1.515
==== e(   4) =   -36.16125 eV ==== 
     psi = 0.168*[#   3]+0.168*[#   4]+0.168*[#   5]+0.007*[#   6]+0.007*[#   7]
          +0.007*[#   8]
    |psi|^2 = 0.524
==== e(   5) =    13.00062 eV ==== 
     psi = 0.159*[#   2]+0.153*[#  10]+0.153*[#  11]+0.153*[#  13]+0.131*[#   9]
          +0.131*[#  12]+0.036*[#   6]+0.036*[#   7]+0.036*[#   8]+0.008*[#   1]
          +0.002*[#   3]+0.002*[#   4]+0.002*[#   5]
    |psi|^2 = 0.999
==== e(   6) =    14.61721 eV ==== 
     psi = 0.331*[#  10]+0.331*[#  11]+0.331*[#  13]+0.002*[#   6]+0.002*[#   7]
          +0.002*[#   8]+0.002*[#   9]+0.002*[#  12]
    |psi|^2 = 1.004
==== e(   7) =    16.14029 eV ==== 
     psi = 0.320*[#   9]+0.320*[#  12]+0.041*[#   6]+0.041*[#   7]+0.041*[#   8]
          +0.023*[#   2]+0.016*[#  10]+0.016*[#  11]+0.016*[#  13]+0.006*[#   1]
          +0.002*[#   3]+0.002*[#   4]+0.002*[#   5]
    |psi|^2 = 0.843
==== e(   8) =    16.74709 eV ==== 
     psi = 0.303*[#   9]+0.303*[#  12]+0.125*[#  10]+0.125*[#  11]+0.125*[#  13]
          +0.003*[#   6]+0.003*[#   7]+0.003*[#   8]+0.002*[#   2]
    |psi|^2 = 0.993
==== e(   9) =    17.36398 eV ==== 
     psi = 0.206*[#   9]+0.206*[#  12]+0.121*[#  10]+0.121*[#  11]+0.121*[#  13]
          +0.064*[#   6]+0.064*[#   7]+0.064*[#   8]+0.020*[#   2]+0.004*[#   1]
          +0.002*[#   3]+0.002*[#   4]+0.002*[#   5]
    |psi|^2 = 0.999
==== e(  10) =    18.19289 eV ==== 
     psi = 0.229*[#  10]+0.229*[#  11]+0.229*[#  13]+0.031*[#   6]+0.031*[#   7]
          +0.031*[#   8]+0.031*[#   9]+0.031*[#  12]+0.022*[#   2]+0.004*[#   1]
          
    |psi|^2 = 0.874
==== e(  11) =    27.04589 eV ==== 
     psi = 0.665*[#   2]+0.097*[#   6]+0.097*[#   7]+0.097*[#   8]+0.027*[#   1]
          +0.021*[#  10]+0.021*[#  11]+0.021*[#  13]+0.006*[#   9]+0.006*[#  12]
          +0.001*[#   3]+0.001*[#   4]+0.001*[#   5]
    |psi|^2 = 1.064
==== e(  12) =    35.61049 eV ==== 
     psi = 0.116*[#   6]+0.116*[#   7]+0.116*[#   8]+0.041*[#   2]+0.003*[#   1]
          +0.003*[#   3]+0.003*[#   4]+0.003*[#   5]
    |psi|^2 = 0.405

 k =  -0.0500000000 -0.4000000000  0.5000000000
==== e(   1) =   -70.26682 eV ==== 
     psi = 0.972*[#   1]+0.010*[#   2]+0.004*[#   6]+0.004*[#   7]+0.004*[#   8]
          +0.002*[#  10]+0.002*[#  11]+0.002*[#  13]
    |psi|^2 = 1.000
==== e(   2) =   -36.52194 eV ==== 
     psi = 0.160*[#   3]+0.160*[#   4]+0.160*[#   5]+0.003*[#   6]+0.003*[#   7]
          +0.003*[#   8]+0.001*[#   2]
    |psi|^2 = 0.492
==== e(   3) =   -36.28422 eV ==== 
     psi = 0.490*[#   3]+0.490*[#   4]+0.490*[#   5]+0.013*[#   6]+0.013*[#   7]
          +0.013*[#   8]
    |psi|^2 = 1.508
==== e(   4) =   -36.16117 eV ==== 
     psi = 0.164*[#   3]+0.164*[#   4]+0.164*[#   5]+0.006*[#   6]+0.006*[#   7]
          +0.006*[#   8]
    |psi|^2 = 0.512
==== e(   5) =    13.03579 eV ==== 
     psi = 0.171*[#  10]+0.171*[#  11]+0.171*[#  13]+0.157*[#   9]+0.157*[#  12]
          +0.136*[#   2]+0.010*[#   6]+0.010*[#   7]+0.010*[#   8]+0.003*[#   1]
          
    |psi|^2 = 0.999
==== e(   6) =    14.54926 eV ==== 
     psi = 0.332*[#  10]+0.332*[#  11]+0.332*[#  13]+0.002*[#   6]+0.002*[#   7]
          +0.002*[#   8]
    |psi|^2 = 1.003
==== e(   7) =    16.39529 eV ==== 
     psi = 0.387*[#   9]+0.387*[#  12]+0.028*[#   6]+0.028*[#   7]+0.028*[#   8]
          +0.011*[#  10]+0.011*[#  11]+0.011*[#  13]+0.008*[#   2]+0.001*[#   1]
          
    |psi|^2 = 0.902
==== e(   8) =    16.74811 eV ==== 
     psi = 0.325*[#   9]+0.325*[#  12]+0.112*[#  10]+0.112*[#  11]+0.112*[#  13]
          +0.006*[#   2]+0.002*[#   6]+0.002*[#   7]+0.002*[#   8]
    |psi|^2 = 0.998
==== e(   9) =    17.72321 eV ==== 
     psi = 0.210*[#  10]+0.210*[#  11]+0.210*[#  13]+0.081*[#   9]+0.081*[#  12]
          +0.065*[#   6]+0.065*[#   7]+0.065*[#   8]+0.007*[#   2]+0.002*[#   3]
          +0.002*[#   4]+0.002*[#   5]
    |psi|^2 = 0.999
==== e(  10) =    18.76996 eV ==== 
     psi = 0.127*[#  10]+0.127*[#  11]+0.127*[#  13]+0.077*[#   6]+0.077*[#   7]
          +0.077*[#   8]+0.039*[#   9]+0.039*[#  12]+0.022*[#   2]+0.002*[#   1]
          +0.002*[#   3]+0.002*[#   4]+0.002*[#   5]
    |psi|^2 = 0.719
==== e(  11) =    25.55793 eV ==== 
     psi = 0.737*[#   2]+0.124*[#   6]+0.124*[#   7]+0.124*[#   8]+0.033*[#  10]
          +0.033*[#  11]+0.033*[#  13]+0.017*[#   1]+0.009*[#   9]+0.009*[#  12]
          +0.002*[#   3]+0.002*[#   4]+0.002*[#   5]
    |psi|^2 = 1.249
==== e(  12) =    35.27175 eV ==== 
     psi = 0.125*[#   6]+0.125*[#   7]+0.125*[#   8]+0.033*[#   2]+0.003*[#   3]
          +0.003*[#   4]+0.003*[#   5]+0.002*[#   1]
    |psi|^2 = 0.424

 k =  -0.0500000000  0.5500000000 -0.4500000000
==== e(   1) =   -70.26509 eV ==== 
     psi = 0.982*[#   1]+0.010*[#   2]+0.002*[#  10]+0.002*[#  11]+0.002*[#  13]
          
    |psi|^2 = 1.000
==== e(   2) =   -36.53085 eV ==== 
     psi = 0.163*[#   3]+0.163*[#   4]+0.163*[#   5]+0.003*[#   6]+0.003*[#   7]
          +0.003*[#   8]
    |psi|^2 = 0.500
==== e(   3) =   -36.28758 eV ==== 
     psi = 0.488*[#   3]+0.488*[#   4]+0.488*[#   5]+0.012*[#   6]+0.012*[#   7]
          +0.012*[#   8]
    |psi|^2 = 1.498
==== e(   4) =   -36.16123 eV ==== 
     psi = 0.162*[#   3]+0.162*[#   4]+0.162*[#   5]+0.005*[#   6]+0.005*[#   7]
          +0.005*[#   8]
    |psi|^2 = 0.502
==== e(   5) =    13.03749 eV ==== 
     psi = 0.176*[#  10]+0.176*[#  11]+0.176*[#  13]+0.166*[#   9]+0.166*[#  12]
          +0.129*[#   2]+0.003*[#   6]+0.003*[#   7]+0.003*[#   8]+0.002*[#   1]
          
    |psi|^2 = 0.999
==== e(   6) =    14.52601 eV ==== 
     psi = 0.332*[#  10]+0.332*[#  11]+0.332*[#  13]+0.002*[#   6]+0.002*[#   7]
          +0.002*[#   8]
    |psi|^2 = 1.002
==== e(   7) =    16.48074 eV ==== 
     psi = 0.410*[#   9]+0.410*[#  12]+0.025*[#   6]+0.025*[#   7]+0.025*[#   8]
          +0.008*[#  10]+0.008*[#  11]+0.008*[#  13]
    |psi|^2 = 0.921
==== e(   8) =    16.73420 eV ==== 
     psi = 0.322*[#   9]+0.322*[#  12]+0.115*[#  10]+0.115*[#  11]+0.115*[#  13]
          +0.010*[#   2]
    |psi|^2 = 1.001
==== e(   9) =    17.85453 eV ==== 
     psi = 0.242*[#  10]+0.242*[#  11]+0.242*[#  13]+0.054*[#   6]+0.054*[#   7]
          +0.054*[#   8]+0.053*[#   9]+0.053*[#  12]+0.001*[#   3]+0.001*[#   4]
          +0.001*[#   5]
    |psi|^2 = 0.999
==== e(  10) =    19.09400 eV ==== 
     psi = 0.110*[#   6]+0.110*[#   7]+0.110*[#   8]+0.083*[#  10]+0.083*[#  11]
          +0.083*[#  13]+0.037*[#   9]+0.037*[#  12]+0.002*[#   3]+0.002*[#   4]
          +0.002*[#   5]
    |psi|^2 = 0.660
==== e(  11) =    24.94576 eV ==== 
     psi = 0.786*[#   2]+0.119*[#   6]+0.119*[#   7]+0.119*[#   8]+0.040*[#  10]
          +0.040*[#  11]+0.040*[#  13]+0.013*[#   1]+0.011*[#   9]+0.011*[#  12]
          +0.002*[#   3]+0.002*[#   4]+0.002*[#   5]
    |psi|^2 = 1.303
==== e(  12) =    35.15578 eV ==== 
     psi = 0.129*[#   6]+0.129*[#   7]+0.129*[#   8]+0.030*[#   2]+0.003*[#   3]
          +0.003*[#   4]+0.003*[#   5]+0.002*[#   1]
    |psi|^2 = 0.431

 k =  -0.1000000000  0.1000000000  0.0500000000
==== e(   1) =   -70.33062 eV ==== 
     psi = 0.810*[#   1]+0.061*[#   6]+0.061*[#   7]+0.061*[#   8]+0.008*[#   2]
          
    |psi|^2 = 1.000
==== e(   2) =   -36.19541 eV ==== 
     psi = 0.273*[#   3]+0.273*[#   4]+0.273*[#   5]+0.028*[#   6]+0.028*[#   7]
          +0.028*[#   8]+0.016*[#   2]
    |psi|^2 = 0.918
==== e(   3) =   -36.16199 eV ==== 
     psi = 0.108*[#   3]+0.108*[#   4]+0.108*[#   5]+0.001*[#   6]+0.001*[#   7]
          +0.001*[#   8]
    |psi|^2 = 0.328
==== e(   4) =   -36.15372 eV ==== 
     psi = 0.460*[#   3]+0.460*[#   4]+0.460*[#   5]+0.010*[#   6]+0.010*[#   7]
          +0.010*[#   8]
    |psi|^2 = 1.410
==== e(   5) =     9.84760 eV ==== 
     psi = 0.602*[#   2]+0.108*[#   1]+0.094*[#   6]+0.094*[#   7]+0.094*[#   8]
          +0.002*[#   3]+0.002*[#   4]+0.002*[#   5]
    |psi|^2 = 0.998
==== e(   6) =    15.41589 eV ==== 
     psi = 0.332*[#  10]+0.332*[#  11]+0.332*[#  13]+0.042*[#   6]+0.042*[#   7]
          +0.042*[#   8]+0.002*[#   9]+0.002*[#  12]
    |psi|^2 = 1.126
==== e(   7) =    15.47401 eV ==== 
     psi = 0.329*[#  10]+0.329*[#  11]+0.329*[#  13]+0.006*[#   9]+0.006*[#  12]
          
    |psi|^2 = 0.999
==== e(   8) =    15.79671 eV ==== 
     psi = 0.333*[#  10]+0.333*[#  11]+0.333*[#  13]
    |psi|^2 = 0.999
==== e(   9) =    16.62773 eV ==== 
     psi = 0.493*[#   9]+0.493*[#  12]+0.004*[#  10]+0.004*[#  11]+0.004*[#  13]
          
    |psi|^2 = 1.000
==== e(  10) =    16.70691 eV ==== 
     psi = 0.498*[#   9]+0.498*[#  12]+0.001*[#  10]+0.001*[#  11]+0.001*[#  13]
          
    |psi|^2 = 1.000
==== e(  11) =    40.05544 eV ==== 
     psi = 0.012*[#   2]+0.009*[#   6]+0.009*[#   7]+0.009*[#   8]+0.002*[#   1]
          
    |psi|^2 = 0.044
==== e(  12) =    41.01208 eV ==== 
     psi = 0.009*[#   6]+0.009*[#   7]+0.009*[#   8]
    |psi|^2 = 0.029

 k =  -0.1000000000 -0.1000000000  0.2500000000
==== e(   1) =   -70.31259 eV ==== 
     psi = 0.784*[#   1]+0.071*[#   6]+0.071*[#   7]+0.071*[#   8]+0.004*[#   2]
          
    |psi|^2 = 1.000
==== e(   2) =   -36.28235 eV ==== 
     psi = 0.144*[#   3]+0.144*[#   4]+0.144*[#   5]+0.019*[#   2]+0.008*[#   6]
          +0.008*[#   7]+0.008*[#   8]
    |psi|^2 = 0.476
==== e(   3) =   -36.19168 eV ==== 
     psi = 0.506*[#   3]+0.506*[#   4]+0.506*[#   5]+0.010*[#   6]+0.010*[#   7]
          +0.010*[#   8]
    |psi|^2 = 1.549
==== e(   4) =   -36.16764 eV ==== 
     psi = 0.251*[#   3]+0.251*[#   4]+0.251*[#   5]+0.009*[#   6]+0.009*[#   7]
          +0.009*[#   8]+0.001*[#   2]
    |psi|^2 = 0.781
==== e(   5) =    10.97326 eV ==== 
     psi = 0.363*[#   2]+0.163*[#   6]+0.163*[#   7]+0.163*[#   8]+0.106*[#   1]
          +0.006*[#   3]+0.006*[#   4]+0.006*[#   5]+0.005*[#  10]+0.005*[#  11]
          +0.005*[#  13]+0.004*[#   9]+0.004*[#  12]
    |psi|^2 = 0.997
==== e(   6) =    15.26651 eV ==== 
     psi = 0.327*[#  10]+0.327*[#  11]+0.327*[#  13]+0.020*[#   6]+0.020*[#   7]
          +0.020*[#   8]+0.004*[#   9]+0.004*[#  12]
    |psi|^2 = 1.055
==== e(   7) =    15.31363 eV ==== 
     psi = 0.290*[#  10]+0.290*[#  11]+0.290*[#  13]+0.063*[#   9]+0.063*[#  12]
          +0.002*[#   6]+0.002*[#   7]+0.002*[#   8]
    |psi|^2 = 1.003
==== e(   8) =    16.35810 eV ==== 
     psi = 0.329*[#  10]+0.329*[#  11]+0.329*[#  13]+0.002*[#   6]+0.002*[#   7]
          +0.002*[#   8]+0.001*[#   1]
    |psi|^2 = 0.995
==== e(   9) =    16.37054 eV ==== 
     psi = 0.436*[#   9]+0.436*[#  12]+0.042*[#  10]+0.042*[#  11]+0.042*[#  13]
          
    |psi|^2 = 0.999
==== e(  10) =    16.85494 eV ==== 
     psi = 0.491*[#   9]+0.491*[#  12]+0.003*[#  10]+0.003*[#  11]+0.003*[#  13]
          +0.003*[#   2]
    |psi|^2 = 0.997
==== e(  11) =    36.59122 eV ==== 
     psi = 0.092*[#   6]+0.092*[#   7]+0.092*[#   8]+0.002*[#   3]+0.002*[#   4]
          +0.002*[#   5]
    |psi|^2 = 0.287
==== e(  12) =    37.87804 eV ==== 
     psi = 0.280*[#   2]+0.047*[#   1]+0.011*[#   6]+0.011*[#   7]+0.011*[#   8]
          
    |psi|^2 = 0.363

 k =  -0.1000000000 -0.1500000000  0.3000000000
==== e(   1) =   -70.30252 eV ==== 
     psi = 0.804*[#   1]+0.063*[#   6]+0.063*[#   7]+0.063*[#   8]+0.008*[#   2]
          
    |psi|^2 = 1.000
==== e(   2) =   -36.33232 eV ==== 
     psi = 0.145*[#   3]+0.145*[#   4]+0.145*[#   5]+0.017*[#   2]+0.005*[#   6]
          +0.005*[#   7]+0.005*[#   8]
    |psi|^2 = 0.470
==== e(   3) =   -36.21097 eV ==== 
     psi = 0.503*[#   3]+0.503*[#   4]+0.503*[#   5]+0.011*[#   6]+0.011*[#   7]
          +0.011*[#   8]
    |psi|^2 = 1.542
==== e(   4) =   -36.17054 eV ==== 
     psi = 0.224*[#   3]+0.224*[#   4]+0.224*[#   5]+0.009*[#   6]+0.009*[#   7]
          +0.009*[#   8]
    |psi|^2 = 0.702
==== e(   5) =    11.63447 eV ==== 
     psi = 0.300*[#   2]+0.173*[#   6]+0.173*[#   7]+0.173*[#   8]+0.091*[#   1]
          +0.014*[#  10]+0.014*[#  11]+0.014*[#  13]+0.011*[#   9]+0.011*[#  12]
          +0.007*[#   3]+0.007*[#   4]+0.007*[#   5]
    |psi|^2 = 0.997
==== e(   6) =    15.12258 eV ==== 
     psi = 0.302*[#  10]+0.302*[#  11]+0.302*[#  13]+0.044*[#   9]+0.044*[#  12]
          +0.015*[#   6]+0.015*[#   7]+0.015*[#   8]
    |psi|^2 = 1.042
==== e(   7) =    15.21638 eV ==== 
     psi = 0.273*[#  10]+0.273*[#  11]+0.273*[#  13]+0.075*[#   9]+0.075*[#  12]
          +0.004*[#   6]+0.004*[#   7]+0.004*[#   8]+0.002*[#   1]+0.001*[#   2]
          
    |psi|^2 = 0.986
==== e(   8) =    16.35999 eV ==== 
     psi = 0.382*[#   9]+0.382*[#  12]+0.078*[#  10]+0.078*[#  11]+0.078*[#  13]
          
    |psi|^2 = 1.002
==== e(   9) =    16.74158 eV ==== 
     psi = 0.307*[#  10]+0.307*[#  11]+0.307*[#  13]+0.031*[#   9]+0.031*[#  12]
          +0.005*[#   6]+0.005*[#   7]+0.005*[#   8]+0.001*[#   1]
    |psi|^2 = 0.999
==== e(  10) =    16.92670 eV ==== 
     psi = 0.456*[#   9]+0.456*[#  12]+0.021*[#  10]+0.021*[#  11]+0.021*[#  13]
          +0.006*[#   2]+0.003*[#   6]+0.003*[#   7]+0.003*[#   8]+0.002*[#   1]
          
    |psi|^2 = 0.991
==== e(  11) =    34.66111 eV ==== 
     psi = 0.149*[#   2]+0.132*[#   6]+0.132*[#   7]+0.132*[#   8]+0.020*[#   1]
          +0.003*[#   3]+0.003*[#   4]+0.003*[#   5]+0.002*[#  10]+0.002*[#  11]
          +0.002*[#  13]+0.001*[#   9]+0.001*[#  12]
    |psi|^2 = 0.582
==== e(  12) =    36.49474 eV ==== 
     psi = 0.286*[#   2]+0.044*[#   6]+0.044*[#   7]+0.044*[#   8]+0.041*[#   1]
          +0.001*[#  10]+0.001*[#  11]+0.001*[#  13]+0.001*[#   3]+0.001*[#   4]
          +0.001*[#   5]
    |psi|^2 = 0.467

 k =  -0.1000000000 -0.2000000000  0.3500000000
==== e(   1) =   -70.29193 eV ==== 
     psi = 0.838*[#   1]+0.050*[#   6]+0.050*[#   7]+0.050*[#   8]+0.010*[#   2]
          
    |psi|^2 = 1.000
==== e(   2) =   -36.38412 eV ==== 
     psi = 0.147*[#   3]+0.147*[#   4]+0.147*[#   5]+0.014*[#   2]+0.004*[#   6]
          +0.004*[#   7]+0.004*[#   8]
    |psi|^2 = 0.468
==== e(   3) =   -36.23378 eV ==== 
     psi = 0.501*[#   3]+0.501*[#   4]+0.501*[#   5]+0.012*[#   6]+0.012*[#   7]
          +0.012*[#   8]
    |psi|^2 = 1.539
==== e(   4) =   -36.17167 eV ==== 
     psi = 0.205*[#   3]+0.205*[#   4]+0.205*[#   5]+0.009*[#   6]+0.009*[#   7]
          +0.009*[#   8]
    |psi|^2 = 0.642
==== e(   5) =    12.31767 eV ==== 
     psi = 0.252*[#   2]+0.162*[#   6]+0.162*[#   7]+0.162*[#   8]+0.066*[#   1]
          +0.038*[#  10]+0.038*[#  11]+0.038*[#  13]+0.027*[#   9]+0.027*[#  12]
          +0.008*[#   3]+0.008*[#   4]+0.008*[#   5]
    |psi|^2 = 0.997
==== e(   6) =    14.94993 eV ==== 
     psi = 0.292*[#  10]+0.292*[#  11]+0.292*[#  13]+0.057*[#   9]+0.057*[#  12]
          +0.013*[#   6]+0.013*[#   7]+0.013*[#   8]
    |psi|^2 = 1.032
==== e(   7) =    15.18991 eV ==== 
     psi = 0.228*[#  10]+0.228*[#  11]+0.228*[#  13]+0.109*[#   9]+0.109*[#  12]
          +0.011*[#   6]+0.011*[#   7]+0.011*[#   8]+0.007*[#   1]+0.005*[#   2]
          
    |psi|^2 = 0.948
==== e(   8) =    16.42226 eV ==== 
     psi = 0.326*[#   9]+0.326*[#  12]+0.115*[#  10]+0.115*[#  11]+0.115*[#  13]
          +0.001*[#   6]+0.001*[#   7]+0.001*[#   8]
    |psi|^2 = 1.001
==== e(   9) =    16.93665 eV ==== 
     psi = 0.402*[#   9]+0.402*[#  12]+0.062*[#  10]+0.062*[#  11]+0.062*[#  13]
          +0.004*[#   2]+0.001*[#   6]+0.001*[#   7]+0.001*[#   8]
    |psi|^2 = 1.000
==== e(  10) =    17.26351 eV ==== 
     psi = 0.255*[#  10]+0.255*[#  11]+0.255*[#  13]+0.076*[#   9]+0.076*[#  12]
          +0.010*[#   2]+0.009*[#   6]+0.009*[#   7]+0.009*[#   8]+0.006*[#   1]
          
    |psi|^2 = 0.958
==== e(  11) =    32.42038 eV ==== 
     psi = 0.335*[#   2]+0.142*[#   6]+0.142*[#   7]+0.142*[#   8]+0.035*[#   1]
          +0.005*[#  10]+0.005*[#  11]+0.005*[#  13]+0.002*[#   3]+0.002*[#   4]
          +0.002*[#   5]+0.002*[#   9]+0.002*[#  12]
    |psi|^2 = 0.824
==== e(  12) =    35.52505 eV ==== 
     psi = 0.221*[#   2]+0.097*[#   6]+0.097*[#   7]+0.097*[#   8]+0.027*[#   1]
          +0.002*[#   3]+0.002*[#   4]+0.002*[#   5]+0.002*[#  10]+0.002*[#  11]
          +0.002*[#  13]
    |psi|^2 = 0.552

 k =  -0.1000000000 -0.2500000000  0.4000000000
==== e(   1) =   -70.28184 eV ==== 
     psi = 0.883*[#   1]+0.035*[#   6]+0.035*[#   7]+0.035*[#   8]+0.010*[#   2]
          
    |psi|^2 = 1.000
==== e(   2) =   -36.43266 eV ==== 
     psi = 0.149*[#   3]+0.149*[#   4]+0.149*[#   5]+0.010*[#   2]+0.004*[#   6]
          +0.004*[#   7]+0.004*[#   8]
    |psi|^2 = 0.468
==== e(   3) =   -36.25628 eV ==== 
     psi = 0.499*[#   3]+0.499*[#   4]+0.499*[#   5]+0.012*[#   6]+0.012*[#   7]
          +0.012*[#   8]
    |psi|^2 = 1.536
==== e(   4) =   -36.17215 eV ==== 
     psi = 0.190*[#   3]+0.190*[#   4]+0.190*[#   5]+0.008*[#   6]+0.008*[#   7]
          +0.008*[#   8]
    |psi|^2 = 0.596
==== e(   5) =    12.86127 eV ==== 
     psi = 0.206*[#   2]+0.118*[#   6]+0.118*[#   7]+0.118*[#   8]+0.086*[#  10]
          +0.086*[#  11]+0.086*[#  13]+0.063*[#   9]+0.063*[#  12]+0.035*[#   1]
          +0.006*[#   3]+0.006*[#   4]+0.006*[#   5]
    |psi|^2 = 0.997
==== e(   6) =    14.80427 eV ==== 
     psi = 0.302*[#  10]+0.302*[#  11]+0.302*[#  13]+0.041*[#   9]+0.041*[#  12]
          +0.011*[#   6]+0.011*[#   7]+0.011*[#   8]
    |psi|^2 = 1.024
==== e(   7) =    15.31088 eV ==== 
     psi = 0.162*[#   9]+0.162*[#  12]+0.149*[#  10]+0.149*[#  11]+0.149*[#  13]
          +0.026*[#   6]+0.026*[#   7]+0.026*[#   8]+0.016*[#   2]+0.011*[#   1]
          +0.001*[#   3]+0.001*[#   4]+0.001*[#   5]
    |psi|^2 = 0.880
==== e(   8) =    16.53813 eV ==== 
     psi = 0.278*[#   9]+0.278*[#  12]+0.145*[#  10]+0.145*[#  11]+0.145*[#  13]
          +0.002*[#   6]+0.002*[#   7]+0.002*[#   8]
    |psi|^2 = 0.998
==== e(   9) =    17.02231 eV ==== 
     psi = 0.404*[#   9]+0.404*[#  12]+0.054*[#  10]+0.054*[#  11]+0.054*[#  13]
          +0.010*[#   2]+0.007*[#   6]+0.007*[#   7]+0.007*[#   8]+0.001*[#   1]
          
    |psi|^2 = 1.000
==== e(  10) =    17.80156 eV ==== 
     psi = 0.250*[#  10]+0.250*[#  11]+0.250*[#  13]+0.047*[#   9]+0.047*[#  12]
          +0.019*[#   2]+0.016*[#   6]+0.016*[#   7]+0.016*[#   8]+0.007*[#   1]
          
    |psi|^2 = 0.920
==== e(  11) =    30.19789 eV ==== 
     psi = 0.456*[#   2]+0.143*[#   6]+0.143*[#   7]+0.143*[#   8]+0.034*[#   1]
          +0.009*[#  10]+0.009*[#  11]+0.009*[#  13]+0.004*[#   9]+0.004*[#  12]
          +0.002*[#   3]+0.002*[#   4]+0.002*[#   5]
    |psi|^2 = 0.961
==== e(  12) =    34.74690 eV ==== 
     psi = 0.177*[#   2]+0.138*[#   6]+0.138*[#   7]+0.138*[#   8]+0.018*[#   1]
          +0.003*[#   3]+0.003*[#   4]+0.003*[#   5]+0.002*[#  10]+0.002*[#  11]
          +0.002*[#  13]
    |psi|^2 = 0.627

 k =  -0.1000000000 -0.3000000000  0.4500000000
==== e(   1) =   -70.27326 eV ==== 
     psi = 0.928*[#   1]+0.019*[#   6]+0.019*[#   7]+0.019*[#   8]+0.010*[#   2]
          +0.001*[#  10]+0.001*[#  11]+0.001*[#  13]
    |psi|^2 = 1.000
==== e(   2) =   -36.47361 eV ==== 
     psi = 0.152*[#   3]+0.152*[#   4]+0.152*[#   5]+0.006*[#   2]+0.004*[#   6]
          +0.004*[#   7]+0.004*[#   8]
    |psi|^2 = 0.473
==== e(   3) =   -36.27575 eV ==== 
     psi = 0.498*[#   3]+0.498*[#   4]+0.498*[#   5]+0.012*[#   6]+0.012*[#   7]
          +0.012*[#   8]
    |psi|^2 = 1.530
==== e(   4) =   -36.17261 eV ==== 
     psi = 0.179*[#   3]+0.179*[#   4]+0.179*[#   5]+0.007*[#   6]+0.007*[#   7]
          +0.007*[#   8]
    |psi|^2 = 0.561
==== e(   5) =    13.13454 eV ==== 
     psi = 0.161*[#   2]+0.137*[#  10]+0.137*[#  11]+0.137*[#  13]+0.112*[#   9]
          +0.112*[#  12]+0.061*[#   6]+0.061*[#   7]+0.061*[#   8]+0.012*[#   1]
          +0.003*[#   3]+0.003*[#   4]+0.003*[#   5]
    |psi|^2 = 0.998
==== e(   6) =    14.69402 eV ==== 
     psi = 0.315*[#  10]+0.315*[#  11]+0.315*[#  13]+0.022*[#   9]+0.022*[#  12]
          +0.009*[#   6]+0.009*[#   7]+0.009*[#   8]
    |psi|^2 = 1.019
==== e(   7) =    15.60628 eV ==== 
     psi = 0.230*[#   9]+0.230*[#  12]+0.076*[#  10]+0.076*[#  11]+0.076*[#  13]
          +0.037*[#   6]+0.037*[#   7]+0.037*[#   8]+0.024*[#   2]+0.008*[#   1]
          +0.002*[#   3]+0.002*[#   4]+0.002*[#   5]
    |psi|^2 = 0.835
==== e(   8) =    16.65278 eV ==== 
     psi = 0.274*[#   9]+0.274*[#  12]+0.146*[#  10]+0.146*[#  11]+0.146*[#  13]
          +0.003*[#   6]+0.003*[#   7]+0.003*[#   8]
    |psi|^2 = 0.997
==== e(   9) =    17.17951 eV ==== 
     psi = 0.309*[#   9]+0.309*[#  12]+0.101*[#  10]+0.101*[#  11]+0.101*[#  13]
          +0.020*[#   6]+0.020*[#   7]+0.020*[#   8]+0.015*[#   2]+0.002*[#   1]
          
    |psi|^2 = 0.999
==== e(  10) =    18.43901 eV ==== 
     psi = 0.203*[#  10]+0.203*[#  11]+0.203*[#  13]+0.047*[#   9]+0.047*[#  12]
          +0.038*[#   2]+0.032*[#   6]+0.032*[#   7]+0.032*[#   8]+0.006*[#   1]
          +0.001*[#   3]+0.001*[#   4]+0.001*[#   5]
    |psi|^2 = 0.844
==== e(  11) =    28.12366 eV ==== 
     psi = 0.540*[#   2]+0.150*[#   6]+0.150*[#   7]+0.150*[#   8]+0.027*[#   1]
          +0.016*[#  10]+0.016*[#  11]+0.016*[#  13]+0.005*[#   9]+0.005*[#  12]
          +0.002*[#   3]+0.002*[#   4]+0.002*[#   5]
    |psi|^2 = 1.083
==== e(  12) =    34.13403 eV ==== 
     psi = 0.168*[#   6]+0.168*[#   7]+0.168*[#   8]+0.141*[#   2]+0.012*[#   1]
          +0.003*[#   3]+0.003*[#   4]+0.003*[#   5]+0.002*[#  10]+0.002*[#  11]
          +0.002*[#  13]
    |psi|^2 = 0.674

 k =  -0.1000000000 -0.3500000000  0.5000000000
==== e(   1) =   -70.26700 eV ==== 
     psi = 0.962*[#   1]+0.011*[#   2]+0.007*[#   6]+0.007*[#   7]+0.007*[#   8]
          +0.001*[#  10]+0.001*[#  11]+0.001*[#  13]
    |psi|^2 = 1.000
==== e(   2) =   -36.50307 eV ==== 
     psi = 0.156*[#   3]+0.156*[#   4]+0.156*[#   5]+0.003*[#   2]+0.003*[#   6]
          +0.003*[#   7]+0.003*[#   8]
    |psi|^2 = 0.481
==== e(   3) =   -36.28988 eV ==== 
     psi = 0.496*[#   3]+0.496*[#   4]+0.496*[#   5]+0.010*[#   6]+0.010*[#   7]
          +0.010*[#   8]
    |psi|^2 = 1.518
==== e(   4) =   -36.17264 eV ==== 
     psi = 0.172*[#   3]+0.172*[#   4]+0.172*[#   5]+0.006*[#   6]+0.006*[#   7]
          +0.006*[#   8]
    |psi|^2 = 0.536
==== e(   5) =    13.20609 eV ==== 
     psi = 0.165*[#  10]+0.165*[#  11]+0.165*[#  13]+0.148*[#   9]+0.148*[#  12]
          +0.129*[#   2]+0.024*[#   6]+0.024*[#   7]+0.024*[#   8]+0.004*[#   1]
          
    |psi|^2 = 0.999
==== e(   6) =    14.61812 eV ==== 
     psi = 0.323*[#  10]+0.323*[#  11]+0.323*[#  13]+0.011*[#   9]+0.011*[#  12]
          +0.008*[#   6]+0.008*[#   7]+0.008*[#   8]
    |psi|^2 = 1.015
==== e(   7) =    15.90160 eV ==== 
     psi = 0.301*[#   9]+0.301*[#  12]+0.042*[#  10]+0.042*[#  11]+0.042*[#  13]
          +0.036*[#   6]+0.036*[#   7]+0.036*[#   8]+0.014*[#   2]+0.002*[#   1]
          +0.001*[#   3]+0.001*[#   4]+0.001*[#   5]
    |psi|^2 = 0.857
==== e(   8) =    16.70303 eV ==== 
     psi = 0.302*[#   9]+0.302*[#  12]+0.128*[#  10]+0.128*[#  11]+0.128*[#  13]
          +0.004*[#   2]+0.002*[#   6]+0.002*[#   7]+0.002*[#   8]
    |psi|^2 = 1.001
==== e(   9) =    17.42139 eV ==== 
     psi = 0.183*[#   9]+0.183*[#  12]+0.174*[#  10]+0.174*[#  11]+0.174*[#  13]
          +0.032*[#   6]+0.032*[#   7]+0.032*[#   8]+0.010*[#   2]+0.001*[#   3]
          +0.001*[#   4]+0.001*[#   5]
    |psi|^2 = 0.999
==== e(  10) =    19.18783 eV ==== 
     psi = 0.137*[#  10]+0.137*[#  11]+0.137*[#  13]+0.060*[#   6]+0.060*[#   7]
          +0.060*[#   8]+0.047*[#   2]+0.045*[#   9]+0.045*[#  12]+0.003*[#   1]
          +0.001*[#   3]+0.001*[#   4]+0.001*[#   5]
    |psi|^2 = 0.734
==== e(  11) =    26.33969 eV ==== 
     psi = 0.623*[#   2]+0.161*[#   6]+0.161*[#   7]+0.161*[#   8]+0.026*[#  10]
          +0.026*[#  11]+0.026*[#  13]+0.019*[#   1]+0.008*[#   9]+0.008*[#  12]
          +0.002*[#   3]+0.002*[#   4]+0.002*[#   5]
    |psi|^2 = 1.224
==== e(  12) =    33.70443 eV ==== 
     psi = 0.185*[#   6]+0.185*[#   7]+0.185*[#   8]+0.111*[#   2]+0.007*[#   1]
          +0.003*[#   3]+0.003*[#   4]+0.003*[#   5]+0.002*[#  10]+0.002*[#  11]
          +0.002*[#  13]
    |psi|^2 = 0.692

 k =  -0.1000000000  0.6000000000 -0.4500000000
==== e(   1) =   -70.26370 eV ==== 
     psi = 0.978*[#   1]+0.012*[#   2]+0.002*[#  10]+0.002*[#  11]+0.002*[#  13]
          +0.001*[#   6]+0.001*[#   7]+0.001*[#   8]
    |psi|^2 = 1.000
==== e(   2) =   -36.51831 eV ==== 
     psi = 0.161*[#   3]+0.161*[#   4]+0.161*[#   5]+0.003*[#   6]+0.003*[#   7]
          +0.003*[#   8]
    |psi|^2 = 0.493
==== e(   3) =   -36.29720 eV ==== 
     psi = 0.491*[#   3]+0.491*[#   4]+0.491*[#   5]+0.008*[#   6]+0.008*[#   7]
          +0.008*[#   8]
    |psi|^2 = 1.500
==== e(   4) =   -36.17266 eV ==== 
     psi = 0.167*[#   3]+0.167*[#   4]+0.167*[#   5]+0.006*[#   6]+0.006*[#   7]
          +0.006*[#   8]
    |psi|^2 = 0.518
==== e(   5) =    13.20931 eV ==== 
     psi = 0.174*[#  10]+0.174*[#  11]+0.174*[#  13]+0.165*[#   9]+0.165*[#  12]
          +0.114*[#   2]+0.010*[#   6]+0.010*[#   7]+0.010*[#   8]+0.002*[#   1]
          
    |psi|^2 = 0.999
==== e(   6) =    14.57895 eV ==== 
     psi = 0.327*[#  10]+0.327*[#  11]+0.327*[#  13]+0.007*[#   6]+0.007*[#   7]
          +0.007*[#   8]+0.006*[#   9]+0.006*[#  12]
    |psi|^2 = 1.012
==== e(   7) =    16.06167 eV ==== 
     psi = 0.342*[#   9]+0.342*[#  12]+0.034*[#   6]+0.034*[#   7]+0.034*[#   8]
          +0.032*[#  10]+0.032*[#  11]+0.032*[#  13]+0.002*[#   2]+0.001*[#   3]
          +0.001*[#   4]+0.001*[#   5]
    |psi|^2 = 0.886
==== e(   8) =    16.70783 eV ==== 
     psi = 0.314*[#   9]+0.314*[#  12]+0.121*[#  10]+0.121*[#  11]+0.121*[#  13]
          +0.009*[#   2]+0.001*[#   6]+0.001*[#   7]+0.001*[#   8]
    |psi|^2 = 1.003
==== e(   9) =    17.59933 eV ==== 
     psi = 0.216*[#  10]+0.216*[#  11]+0.216*[#  13]+0.121*[#   9]+0.121*[#  12]
          +0.035*[#   6]+0.035*[#   7]+0.035*[#   8]+0.001*[#   2]
    |psi|^2 = 0.999
==== e(  10) =    19.84044 eV ==== 
     psi = 0.097*[#   6]+0.097*[#   7]+0.097*[#   8]+0.089*[#  10]+0.089*[#  11]
          +0.089*[#  13]+0.039*[#   9]+0.039*[#  12]+0.012*[#   2]+0.001*[#   3]
          +0.001*[#   4]+0.001*[#   5]
    |psi|^2 = 0.653
==== e(  11) =    25.16277 eV ==== 
     psi = 0.717*[#   2]+0.151*[#   6]+0.151*[#   7]+0.151*[#   8]+0.037*[#  10]
          +0.037*[#  11]+0.037*[#  13]+0.013*[#   1]+0.010*[#   9]+0.010*[#  12]
          +0.002*[#   3]+0.002*[#   4]+0.002*[#   5]
    |psi|^2 = 1.321
==== e(  12) =    33.48164 eV ==== 
     psi = 0.193*[#   6]+0.193*[#   7]+0.193*[#   8]+0.093*[#   2]+0.005*[#   1]
          +0.003*[#   3]+0.003*[#   4]+0.003*[#   5]+0.002*[#  10]+0.002*[#  11]
          +0.002*[#  13]
    |psi|^2 = 0.694

 k =  -0.1500000000  0.1500000000  0.0500000000
==== e(   1) =   -70.32281 eV ==== 
     psi = 0.785*[#   1]+0.072*[#   6]+0.072*[#   7]+0.072*[#   8]
    |psi|^2 = 1.000
==== e(   2) =   -36.23839 eV ==== 
     psi = 0.298*[#   3]+0.298*[#   4]+0.298*[#   5]+0.034*[#   6]+0.034*[#   7]
          +0.034*[#   8]+0.019*[#   2]
    |psi|^2 = 1.016
==== e(   3) =   -36.17642 eV ==== 
     psi = 0.057*[#   3]+0.057*[#   4]+0.057*[#   5]
    |psi|^2 = 0.174
==== e(   4) =   -36.15402 eV ==== 
     psi = 0.472*[#   3]+0.472*[#   4]+0.472*[#   5]+0.010*[#   6]+0.010*[#   7]
          +0.010*[#   8]
    |psi|^2 = 1.447
==== e(   5) =    10.33214 eV ==== 
     psi = 0.462*[#   2]+0.135*[#   6]+0.135*[#   7]+0.135*[#   8]+0.111*[#   1]
          +0.003*[#   3]+0.003*[#   4]+0.003*[#   5]+0.002*[#  10]+0.002*[#  11]
          +0.002*[#  13]
    |psi|^2 = 0.997
==== e(   6) =    15.28985 eV ==== 
     psi = 0.331*[#  10]+0.331*[#  11]+0.331*[#  13]+0.064*[#   6]+0.064*[#   7]
          +0.064*[#   8]+0.003*[#   9]+0.003*[#  12]+0.002*[#   3]+0.002*[#   4]
          +0.002*[#   5]
    |psi|^2 = 1.196
==== e(   7) =    15.42913 eV ==== 
     psi = 0.312*[#  10]+0.312*[#  11]+0.312*[#  13]+0.029*[#   9]+0.029*[#  12]
          +0.001*[#   6]+0.001*[#   7]+0.001*[#   8]
    |psi|^2 = 0.999
==== e(   8) =    16.05997 eV ==== 
     psi = 0.332*[#  10]+0.332*[#  11]+0.332*[#  13]
    |psi|^2 = 0.999
==== e(   9) =    16.56017 eV ==== 
     psi = 0.470*[#   9]+0.470*[#  12]+0.020*[#  10]+0.020*[#  11]+0.020*[#  13]
          
    |psi|^2 = 1.000
==== e(  10) =    16.72540 eV ==== 
     psi = 0.497*[#   9]+0.497*[#  12]+0.002*[#  10]+0.002*[#  11]+0.002*[#  13]
          
    |psi|^2 = 1.000
==== e(  11) =    37.95820 eV ==== 
     psi = 0.098*[#   2]+0.029*[#   6]+0.029*[#   7]+0.029*[#   8]+0.018*[#   1]
          
    |psi|^2 = 0.207
==== e(  12) =    40.12745 eV ==== 
     psi = 0.023*[#   6]+0.023*[#   7]+0.023*[#   8]
    |psi|^2 = 0.072

 k =  -0.1500000000  0.1000000000  0.1000000000
==== e(   1) =   -70.32433 eV ==== 
     psi = 0.786*[#   1]+0.071*[#   6]+0.071*[#   7]+0.071*[#   8]
    |psi|^2 = 1.000
==== e(   2) =   -36.23218 eV ==== 
     psi = 0.235*[#   3]+0.235*[#   4]+0.235*[#   5]+0.038*[#   6]+0.038*[#   7]
          +0.038*[#   8]+0.019*[#   2]
    |psi|^2 = 0.837
==== e(   3) =   -36.16658 eV ==== 
     psi = 0.254*[#   3]+0.254*[#   4]+0.254*[#   5]+0.005*[#   6]+0.005*[#   7]
          +0.005*[#   8]
    |psi|^2 = 0.777
==== e(   4) =   -36.15823 eV ==== 
     psi = 0.396*[#   3]+0.396*[#   4]+0.396*[#   5]+0.007*[#   6]+0.007*[#   7]
          +0.007*[#   8]
    |psi|^2 = 1.209
==== e(   5) =    10.23793 eV ==== 
     psi = 0.483*[#   2]+0.129*[#   6]+0.129*[#   7]+0.129*[#   8]+0.112*[#   1]
          +0.003*[#   3]+0.003*[#   4]+0.003*[#   5]+0.002*[#  10]+0.002*[#  11]
          +0.002*[#  13]
    |psi|^2 = 0.997
==== e(   6) =    15.33630 eV ==== 
     psi = 0.328*[#  10]+0.328*[#  11]+0.328*[#  13]+0.069*[#   6]+0.069*[#   7]
          +0.069*[#   8]+0.007*[#   9]+0.007*[#  12]+0.002*[#   3]+0.002*[#   4]
          +0.002*[#   5]
    |psi|^2 = 1.209
==== e(   7) =    15.38023 eV ==== 
     psi = 0.321*[#  10]+0.321*[#  11]+0.321*[#  13]+0.017*[#   9]+0.017*[#  12]
          
    |psi|^2 = 0.999
==== e(   8) =    16.04249 eV ==== 
     psi = 0.331*[#  10]+0.331*[#  11]+0.331*[#  13]
    |psi|^2 = 0.999
==== e(   9) =    16.58457 eV ==== 
     psi = 0.483*[#   9]+0.483*[#  12]+0.011*[#  10]+0.011*[#  11]+0.011*[#  13]
          
    |psi|^2 = 1.000
==== e(  10) =    16.71056 eV ==== 
     psi = 0.492*[#   9]+0.492*[#  12]+0.005*[#  10]+0.005*[#  11]+0.005*[#  13]
          
    |psi|^2 = 1.000
==== e(  11) =    38.76957 eV ==== 
     psi = 0.016*[#   6]+0.016*[#   7]+0.016*[#   8]
    |psi|^2 = 0.050
==== e(  12) =    39.53148 eV ==== 
     psi = 0.033*[#   2]+0.024*[#   6]+0.024*[#   7]+0.024*[#   8]+0.006*[#   1]
          
    |psi|^2 = 0.115

 k =  -0.1500000000 -0.1500000000  0.3500000000
==== e(   1) =   -70.29275 eV ==== 
     psi = 0.833*[#   1]+0.052*[#   6]+0.052*[#   7]+0.052*[#   8]+0.010*[#   2]
          
    |psi|^2 = 1.000
==== e(   2) =   -36.37574 eV ==== 
     psi = 0.145*[#   3]+0.145*[#   4]+0.145*[#   5]+0.015*[#   2]+0.007*[#   6]
          +0.007*[#   7]+0.007*[#   8]
    |psi|^2 = 0.473
==== e(   3) =   -36.23012 eV ==== 
     psi = 0.505*[#   3]+0.505*[#   4]+0.505*[#   5]+0.010*[#   6]+0.010*[#   7]
          +0.010*[#   8]
    |psi|^2 = 1.546
==== e(   4) =   -36.17731 eV ==== 
     psi = 0.249*[#   3]+0.249*[#   4]+0.249*[#   5]+0.010*[#   6]+0.010*[#   7]
          +0.010*[#   8]
    |psi|^2 = 0.779
==== e(   5) =    12.28707 eV ==== 
     psi = 0.254*[#   2]+0.170*[#   6]+0.170*[#   7]+0.170*[#   8]+0.071*[#   1]
          +0.031*[#  10]+0.031*[#  11]+0.031*[#  13]+0.022*[#   9]+0.022*[#  12]
          +0.008*[#   3]+0.008*[#   4]+0.008*[#   5]
    |psi|^2 = 0.997
==== e(   6) =    14.97742 eV ==== 
     psi = 0.224*[#  10]+0.224*[#  11]+0.224*[#  13]+0.155*[#   9]+0.155*[#  12]
          +0.028*[#   6]+0.028*[#   7]+0.028*[#   8]+0.001*[#   3]+0.001*[#   4]
          +0.001*[#   5]
    |psi|^2 = 1.070
==== e(   7) =    15.12366 eV ==== 
     psi = 0.317*[#  10]+0.317*[#  11]+0.317*[#  13]+0.004*[#   1]+0.003*[#   6]
          +0.003*[#   7]+0.003*[#   8]+0.003*[#   2]+0.001*[#   9]+0.001*[#  12]
          
    |psi|^2 = 0.969
==== e(   8) =    16.36827 eV ==== 
     psi = 0.342*[#   9]+0.342*[#  12]+0.105*[#  10]+0.105*[#  11]+0.105*[#  13]
          +0.003*[#   6]+0.003*[#   7]+0.003*[#   8]
    |psi|^2 = 1.007
==== e(   9) =    16.93747 eV ==== 
     psi = 0.381*[#   9]+0.381*[#  12]+0.078*[#  10]+0.078*[#  11]+0.078*[#  13]
          +0.004*[#   2]
    |psi|^2 = 1.000
==== e(  10) =    17.28211 eV ==== 
     psi = 0.238*[#  10]+0.238*[#  11]+0.238*[#  13]+0.095*[#   9]+0.095*[#  12]
          +0.012*[#   2]+0.009*[#   6]+0.009*[#   7]+0.009*[#   8]+0.007*[#   1]
          
    |psi|^2 = 0.951
==== e(  11) =    33.45601 eV ==== 
     psi = 0.239*[#   6]+0.239*[#   7]+0.239*[#   8]+0.005*[#   3]+0.005*[#   4]
          +0.005*[#   5]+0.003*[#  10]+0.003*[#  11]+0.003*[#  13]+0.003*[#   9]
          +0.003*[#  12]
    |psi|^2 = 0.746
==== e(  12) =    34.42625 eV ==== 
     psi = 0.547*[#   2]+0.064*[#   1]+0.024*[#   6]+0.024*[#   7]+0.024*[#   8]
          +0.003*[#  10]+0.003*[#  11]+0.003*[#  13]
    |psi|^2 = 0.693

 k =  -0.1500000000 -0.2000000000  0.4000000000
==== e(   1) =   -70.28298 eV ==== 
     psi = 0.873*[#   1]+0.038*[#   6]+0.038*[#   7]+0.038*[#   8]+0.011*[#   2]
          
    |psi|^2 = 1.000
==== e(   2) =   -36.41735 eV ==== 
     psi = 0.145*[#   3]+0.145*[#   4]+0.145*[#   5]+0.011*[#   2]+0.005*[#   6]
          +0.005*[#   7]+0.005*[#   8]
    |psi|^2 = 0.463
==== e(   3) =   -36.25428 eV ==== 
     psi = 0.506*[#   3]+0.506*[#   4]+0.506*[#   5]+0.010*[#   6]+0.010*[#   7]
          +0.010*[#   8]
    |psi|^2 = 1.548
==== e(   4) =   -36.18111 eV ==== 
     psi = 0.226*[#   3]+0.226*[#   4]+0.226*[#   5]+0.010*[#   6]+0.010*[#   7]
          +0.010*[#   8]
    |psi|^2 = 0.707
==== e(   5) =    12.89705 eV ==== 
     psi = 0.213*[#   2]+0.144*[#   6]+0.144*[#   7]+0.144*[#   8]+0.066*[#  10]
          +0.066*[#  11]+0.066*[#  13]+0.045*[#   9]+0.045*[#  12]+0.043*[#   1]
          +0.007*[#   3]+0.007*[#   4]+0.007*[#   5]
    |psi|^2 = 0.997
==== e(   6) =    14.80589 eV ==== 
     psi = 0.216*[#  10]+0.216*[#  11]+0.216*[#  13]+0.162*[#   9]+0.162*[#  12]
          +0.025*[#   6]+0.025*[#   7]+0.025*[#   8]+0.001*[#   3]+0.001*[#   4]
          +0.001*[#   5]
    |psi|^2 = 1.050
==== e(   7) =    15.12671 eV ==== 
     psi = 0.279*[#  10]+0.279*[#  11]+0.279*[#  13]+0.027*[#   9]+0.027*[#  12]
          +0.009*[#   6]+0.009*[#   7]+0.009*[#   8]+0.007*[#   2]+0.006*[#   1]
          
    |psi|^2 = 0.932
==== e(   8) =    16.43821 eV ==== 
     psi = 0.304*[#   9]+0.304*[#  12]+0.130*[#  10]+0.130*[#  11]+0.130*[#  13]
          +0.004*[#   6]+0.004*[#   7]+0.004*[#   8]
    |psi|^2 = 1.009
==== e(   9) =    17.01227 eV ==== 
     psi = 0.397*[#   9]+0.397*[#  12]+0.062*[#  10]+0.062*[#  11]+0.062*[#  13]
          +0.009*[#   2]+0.003*[#   6]+0.003*[#   7]+0.003*[#   8]
    |psi|^2 = 1.000
==== e(  10) =    17.87036 eV ==== 
     psi = 0.235*[#  10]+0.235*[#  11]+0.235*[#  13]+0.059*[#   9]+0.059*[#  12]
          +0.024*[#   2]+0.017*[#   6]+0.017*[#   7]+0.017*[#   8]+0.008*[#   1]
          
    |psi|^2 = 0.906
==== e(  11) =    31.51757 eV ==== 
     psi = 0.221*[#   2]+0.219*[#   6]+0.219*[#   7]+0.219*[#   8]+0.019*[#   1]
          +0.007*[#  10]+0.007*[#  11]+0.007*[#  13]+0.004*[#   9]+0.004*[#  12]
          +0.003*[#   3]+0.003*[#   4]+0.003*[#   5]
    |psi|^2 = 0.934
==== e(  12) =    33.24570 eV ==== 
     psi = 0.405*[#   2]+0.100*[#   6]+0.100*[#   7]+0.100*[#   8]+0.039*[#   1]
          +0.004*[#  10]+0.004*[#  11]+0.004*[#  13]+0.002*[#   3]+0.002*[#   4]
          +0.002*[#   5]
    |psi|^2 = 0.761

 k =  -0.1500000000 -0.2500000000  0.4500000000
==== e(   1) =   -70.27416 eV ==== 
     psi = 0.917*[#   1]+0.023*[#   6]+0.023*[#   7]+0.023*[#   8]+0.011*[#   2]
          
    |psi|^2 = 1.000
==== e(   2) =   -36.45341 eV ==== 
     psi = 0.146*[#   3]+0.146*[#   4]+0.146*[#   5]+0.008*[#   2]+0.004*[#   6]
          +0.004*[#   7]+0.004*[#   8]
    |psi|^2 = 0.457
==== e(   3) =   -36.27866 eV ==== 
     psi = 0.506*[#   3]+0.506*[#   4]+0.506*[#   5]+0.009*[#   6]+0.009*[#   7]
          +0.009*[#   8]
    |psi|^2 = 1.548
==== e(   4) =   -36.18314 eV ==== 
     psi = 0.206*[#   3]+0.206*[#   4]+0.206*[#   5]+0.009*[#   6]+0.009*[#   7]
          +0.009*[#   8]
    |psi|^2 = 0.644
==== e(   5) =    13.30149 eV ==== 
     psi = 0.166*[#   2]+0.121*[#  10]+0.121*[#  11]+0.121*[#  13]+0.090*[#   6]
          +0.090*[#   7]+0.090*[#   8]+0.084*[#   9]+0.084*[#  12]+0.018*[#   1]
          +0.005*[#   3]+0.005*[#   4]+0.005*[#   5]
    |psi|^2 = 0.998
==== e(   6) =    14.69750 eV ==== 
     psi = 0.241*[#  10]+0.241*[#  11]+0.241*[#  13]+0.121*[#   9]+0.121*[#  12]
          +0.023*[#   6]+0.023*[#   7]+0.023*[#   8]+0.001*[#   2]
    |psi|^2 = 1.037
==== e(   7) =    15.23757 eV ==== 
     psi = 0.192*[#  10]+0.192*[#  11]+0.192*[#  13]+0.105*[#   9]+0.105*[#  12]
          +0.021*[#   6]+0.021*[#   7]+0.021*[#   8]+0.016*[#   2]+0.006*[#   1]
          
    |psi|^2 = 0.875
==== e(   8) =    16.55038 eV ==== 
     psi = 0.276*[#   9]+0.276*[#  12]+0.147*[#  10]+0.147*[#  11]+0.147*[#  13]
          +0.004*[#   6]+0.004*[#   7]+0.004*[#   8]
    |psi|^2 = 1.007
==== e(   9) =    17.10215 eV ==== 
     psi = 0.353*[#   9]+0.353*[#  12]+0.085*[#  10]+0.085*[#  11]+0.085*[#  13]
          +0.014*[#   2]+0.008*[#   6]+0.008*[#   7]+0.008*[#   8]+0.001*[#   1]
          
    |psi|^2 = 1.000
==== e(  10) =    18.59342 eV ==== 
     psi = 0.194*[#  10]+0.194*[#  11]+0.194*[#  13]+0.054*[#   9]+0.054*[#  12]
          +0.048*[#   2]+0.028*[#   6]+0.028*[#   7]+0.028*[#   8]+0.007*[#   1]
          
    |psi|^2 = 0.833
==== e(  11) =    29.38169 eV ==== 
     psi = 0.374*[#   2]+0.208*[#   6]+0.208*[#   7]+0.208*[#   8]+0.022*[#   1]
          +0.012*[#  10]+0.012*[#  11]+0.012*[#  13]+0.005*[#   9]+0.005*[#  12]
          +0.003*[#   3]+0.003*[#   4]+0.003*[#   5]
    |psi|^2 = 1.072
==== e(  12) =    32.51419 eV ==== 
     psi = 0.295*[#   2]+0.154*[#   6]+0.154*[#   7]+0.154*[#   8]+0.023*[#   1]
          +0.004*[#  10]+0.004*[#  11]+0.004*[#  13]+0.002*[#   3]+0.002*[#   4]
          +0.002*[#   5]+0.001*[#   9]+0.001*[#  12]
    |psi|^2 = 0.801

 k =  -0.1500000000 -0.3000000000  0.5000000000
==== e(   1) =   -70.26712 eV ==== 
     psi = 0.953*[#   1]+0.012*[#   2]+0.010*[#   6]+0.010*[#   7]+0.010*[#   8]
          +0.001*[#  10]+0.001*[#  11]+0.001*[#  13]
    |psi|^2 = 1.000
==== e(   2) =   -36.48102 eV ==== 
     psi = 0.149*[#   3]+0.149*[#   4]+0.149*[#   5]+0.005*[#   2]+0.003*[#   6]
          +0.003*[#   7]+0.003*[#   8]
    |psi|^2 = 0.461
==== e(   3) =   -36.29898 eV ==== 
     psi = 0.504*[#   3]+0.504*[#   4]+0.504*[#   5]+0.007*[#   6]+0.007*[#   7]
          +0.007*[#   8]
    |psi|^2 = 1.537
==== e(   4) =   -36.18389 eV ==== 
     psi = 0.189*[#   3]+0.189*[#   4]+0.189*[#   5]+0.008*[#   6]+0.008*[#   7]
          +0.008*[#   8]
    |psi|^2 = 0.592
==== e(   5) =    13.44642 eV ==== 
     psi = 0.161*[#  10]+0.161*[#  11]+0.161*[#  13]+0.128*[#   9]+0.128*[#  12]
          +0.124*[#   2]+0.042*[#   6]+0.042*[#   7]+0.042*[#   8]+0.005*[#   1]
          +0.002*[#   3]+0.002*[#   4]+0.002*[#   5]
    |psi|^2 = 0.999
==== e(   6) =    14.64520 eV ==== 
     psi = 0.281*[#  10]+0.281*[#  11]+0.281*[#  13]+0.065*[#   9]+0.065*[#  12]
          +0.019*[#   6]+0.019*[#   7]+0.019*[#   8]+0.001*[#   2]
    |psi|^2 = 1.031
==== e(   7) =    15.43866 eV ==== 
     psi = 0.206*[#   9]+0.206*[#  12]+0.108*[#  10]+0.108*[#  11]+0.108*[#  13]
          +0.030*[#   6]+0.030*[#   7]+0.030*[#   8]+0.017*[#   2]+0.003*[#   1]
          +0.001*[#   3]+0.001*[#   4]+0.001*[#   5]
    |psi|^2 = 0.851
==== e(   8) =    16.65032 eV ==== 
     psi = 0.280*[#   9]+0.280*[#  12]+0.144*[#  10]+0.144*[#  11]+0.144*[#  13]
          +0.004*[#   6]+0.004*[#   7]+0.004*[#   8]+0.002*[#   2]
    |psi|^2 = 1.007
==== e(   9) =    17.24280 eV ==== 
     psi = 0.264*[#   9]+0.264*[#  12]+0.137*[#  10]+0.137*[#  11]+0.137*[#  13]
          +0.015*[#   6]+0.015*[#   7]+0.015*[#   8]+0.013*[#   2]
    |psi|^2 = 1.000
==== e(  10) =    19.46339 eV ==== 
     psi = 0.141*[#  10]+0.141*[#  11]+0.141*[#  13]+0.073*[#   2]+0.048*[#   9]
          +0.048*[#  12]+0.047*[#   6]+0.047*[#   7]+0.047*[#   8]+0.003*[#   1]
          
    |psi|^2 = 0.739
==== e(  11) =    27.40128 eV ==== 
     psi = 0.474*[#   2]+0.210*[#   6]+0.210*[#   7]+0.210*[#   8]+0.020*[#  10]
          +0.020*[#  11]+0.020*[#  13]+0.018*[#   1]+0.007*[#   9]+0.007*[#  12]
          +0.002*[#   3]+0.002*[#   4]+0.002*[#   5]
    |psi|^2 = 1.202
==== e(  12) =    31.98733 eV ==== 
     psi = 0.229*[#   2]+0.183*[#   6]+0.183*[#   7]+0.183*[#   8]+0.014*[#   1]
          +0.004*[#  10]+0.004*[#  11]+0.004*[#  13]+0.002*[#   3]+0.002*[#   4]
          +0.002*[#   5]+0.002*[#   9]+0.002*[#  12]
    |psi|^2 = 0.814

 k =  -0.1500000000  0.6500000000 -0.4500000000
==== e(   1) =   -70.26263 eV ==== 
     psi = 0.973*[#   1]+0.014*[#   2]+0.003*[#   6]+0.003*[#   7]+0.003*[#   8]
          +0.001*[#  10]+0.001*[#  11]+0.001*[#  13]
    |psi|^2 = 1.000
==== e(   2) =   -36.49854 eV ==== 
     psi = 0.156*[#   3]+0.156*[#   4]+0.156*[#   5]+0.002*[#   6]+0.002*[#   7]
          +0.002*[#   8]+0.001*[#   2]
    |psi|^2 = 0.476
==== e(   3) =   -36.31279 eV ==== 
     psi = 0.496*[#   3]+0.496*[#   4]+0.496*[#   5]+0.005*[#   6]+0.005*[#   7]
          +0.005*[#   8]
    |psi|^2 = 1.508
==== e(   4) =   -36.18450 eV ==== 
     psi = 0.178*[#   3]+0.178*[#   4]+0.178*[#   5]+0.007*[#   6]+0.007*[#   7]
          +0.007*[#   8]
    |psi|^2 = 0.556
[...]
    |psi|^2 = 1.000
==== e(  10) =    26.00313 eV ==== 
     psi = 0.146*[#   6]+0.146*[#   7]+0.146*[#   8]+0.056*[#   9]+0.056*[#  12]
          +0.002*[#  10]+0.002*[#  11]+0.002*[#  13]
    |psi|^2 = 0.556
==== e(  11) =    27.07074 eV ==== 
     psi = 0.254*[#   6]+0.254*[#   7]+0.254*[#   8]+0.248*[#   2]+0.021*[#  10]
          +0.021*[#  11]+0.021*[#  13]+0.017*[#   9]+0.017*[#  12]+0.001*[#   1]
          
    |psi|^2 = 1.108
==== e(  12) =    29.20069 eV ==== 
     psi = 0.292*[#   6]+0.292*[#   7]+0.292*[#   8]+0.047*[#   2]+0.012*[#  10]
          +0.012*[#  11]+0.012*[#  13]+0.004*[#   9]+0.004*[#  12]
    |psi|^2 = 0.969

 k =  -0.1000000000  0.9000000000 -0.1500000000
==== e(   1) =   -67.36936 eV ==== 
     psi = 0.937*[#   1]+0.051*[#   2]+0.004*[#   6]+0.004*[#   7]+0.004*[#   8]
          
    |psi|^2 = 1.000
==== e(   2) =   -33.66112 eV ==== 
     psi = 0.115*[#   3]+0.115*[#   4]+0.115*[#   5]+0.001*[#   6]+0.001*[#   7]
          +0.001*[#   8]
    |psi|^2 = 0.349
==== e(   3) =   -33.64183 eV ==== 
     psi = 0.551*[#   3]+0.551*[#   4]+0.551*[#   5]
    |psi|^2 = 1.654
==== e(   4) =   -33.57649 eV ==== 
     psi = 0.275*[#   3]+0.275*[#   4]+0.275*[#   5]+0.002*[#   2]
    |psi|^2 = 0.829
==== e(   5) =    15.23406 eV ==== 
     psi = 0.442*[#   9]+0.442*[#  12]+0.032*[#   6]+0.032*[#   7]+0.032*[#   8]
          +0.002*[#  10]+0.002*[#  11]+0.002*[#  13]
    |psi|^2 = 0.988
==== e(   6) =    15.26905 eV ==== 
     psi = 0.458*[#   9]+0.458*[#  12]+0.022*[#   6]+0.022*[#   7]+0.022*[#   8]
          +0.003*[#  10]+0.003*[#  11]+0.003*[#  13]
    |psi|^2 = 0.993
==== e(   7) =    18.82281 eV ==== 
     psi = 0.315*[#  10]+0.315*[#  11]+0.315*[#  13]+0.013*[#   2]+0.010*[#   6]
          +0.010*[#   7]+0.010*[#   8]
    |psi|^2 = 0.989
==== e(   8) =    19.75261 eV ==== 
     psi = 0.319*[#  10]+0.319*[#  11]+0.319*[#  13]+0.018*[#   6]+0.018*[#   7]
          +0.018*[#   8]+0.008*[#   9]+0.008*[#  12]
    |psi|^2 = 1.028
==== e(   9) =    20.04424 eV ==== 
     psi = 0.326*[#  10]+0.326*[#  11]+0.326*[#  13]+0.006*[#   9]+0.006*[#  12]
          +0.003*[#   6]+0.003*[#   7]+0.003*[#   8]
    |psi|^2 = 0.999
==== e(  10) =    26.25676 eV ==== 
     psi = 0.064*[#   2]+0.043*[#   9]+0.043*[#  12]+0.028*[#   6]+0.028*[#   7]
          +0.028*[#   8]+0.008*[#  10]+0.008*[#  11]+0.008*[#  13]
    |psi|^2 = 0.257
==== e(  11) =    27.67944 eV ==== 
     psi = 0.545*[#   6]+0.545*[#   7]+0.545*[#   8]+0.026*[#   9]+0.026*[#  12]
          +0.011*[#  10]+0.011*[#  11]+0.011*[#  13]
    |psi|^2 = 1.720
==== e(  12) =    28.20202 eV ==== 
     psi = 0.238*[#   6]+0.238*[#   7]+0.238*[#   8]+0.226*[#   2]+0.016*[#  10]
          +0.016*[#  11]+0.016*[#  13]+0.002*[#   9]+0.002*[#  12]+0.001*[#   1]
          
    |psi|^2 = 0.993

 k =   0.0000000000  0.0000000000  0.7500000000
==== e(   1) =   -67.37562 eV ==== 
     psi = 0.941*[#   1]+0.043*[#   2]+0.005*[#   6]+0.005*[#   7]+0.005*[#   8]
          
    |psi|^2 = 1.000
==== e(   2) =   -33.63789 eV ==== 
     psi = 0.006*[#   2]
    |psi|^2 = 0.008
==== e(   3) =   -33.60076 eV ==== 
     psi = 0.663*[#   3]+0.663*[#   4]+0.663*[#   5]
    |psi|^2 = 1.992
==== e(   4) =   -33.60076 eV ==== 
     psi = 0.333*[#   3]+0.333*[#   4]+0.333*[#   5]
    |psi|^2 = 1.000
==== e(   5) =    15.15142 eV ==== 
     psi = 0.387*[#   9]+0.387*[#  12]+0.064*[#   6]+0.064*[#   7]+0.064*[#   8]
          +0.025*[#   2]+0.001*[#   1]+0.001*[#   3]+0.001*[#   4]+0.001*[#   5]
          
    |psi|^2 = 0.996
==== e(   6) =    15.53557 eV ==== 
     psi = 0.488*[#   9]+0.488*[#  12]
    |psi|^2 = 0.975
==== e(   7) =    19.11338 eV ==== 
     psi = 0.318*[#  10]+0.318*[#  11]+0.318*[#  13]+0.015*[#   6]+0.015*[#   7]
          +0.015*[#   8]
    |psi|^2 = 0.999
==== e(   8) =    19.11338 eV ==== 
     psi = 0.318*[#  10]+0.318*[#  11]+0.318*[#  13]+0.015*[#   6]+0.015*[#   7]
          +0.015*[#   8]
    |psi|^2 = 0.999
==== e(   9) =    19.76986 eV ==== 
     psi = 0.333*[#  10]+0.333*[#  11]+0.333*[#  13]
    |psi|^2 = 0.999
==== e(  10) =    23.51891 eV ==== 
     psi = 0.223*[#   2]+0.104*[#   9]+0.104*[#  12]
    |psi|^2 = 0.431
==== e(  11) =    30.21933 eV ==== 
     psi = 0.490*[#   6]+0.490*[#   7]+0.490*[#   8]+0.015*[#  10]+0.015*[#  11]
          +0.015*[#  13]
    |psi|^2 = 1.517
==== e(  12) =    30.21933 eV ==== 
     psi = 0.303*[#   6]+0.303*[#   7]+0.303*[#   8]+0.015*[#  10]+0.015*[#  11]
          +0.015*[#  13]
    |psi|^2 = 0.957

 k =   0.0000000000 -0.0500000000  0.8000000000
==== e(   1) =   -67.36998 eV ==== 
     psi = 0.939*[#   1]+0.049*[#   2]+0.004*[#   6]+0.004*[#   7]+0.004*[#   8]
          
    |psi|^2 = 1.000
==== e(   2) =   -33.65247 eV ==== 
     psi = 0.080*[#   3]+0.080*[#   4]+0.080*[#   5]+0.002*[#   2]
    |psi|^2 = 0.245
==== e(   3) =   -33.61573 eV ==== 
     psi = 0.585*[#   3]+0.585*[#   4]+0.585*[#   5]
    |psi|^2 = 1.755
==== e(   4) =   -33.60642 eV ==== 
     psi = 0.252*[#   3]+0.252*[#   4]+0.252*[#   5]+0.001*[#   2]
    |psi|^2 = 0.760
==== e(   5) =    15.13723 eV ==== 
     psi = 0.422*[#   9]+0.422*[#  12]+0.045*[#   6]+0.045*[#   7]+0.045*[#   8]
          +0.009*[#   2]
    |psi|^2 = 0.992
==== e(   6) =    15.32705 eV ==== 
     psi = 0.483*[#   9]+0.483*[#  12]+0.003*[#   6]+0.003*[#   7]+0.003*[#   8]
          
    |psi|^2 = 0.977
==== e(   7) =    19.29226 eV ==== 
     psi = 0.321*[#  10]+0.321*[#  11]+0.321*[#  13]+0.012*[#   6]+0.012*[#   7]
          +0.012*[#   8]
    |psi|^2 = 0.999
==== e(   8) =    19.36737 eV ==== 
     psi = 0.317*[#  10]+0.317*[#  11]+0.317*[#  13]+0.012*[#   6]+0.012*[#   7]
          +0.012*[#   8]+0.003*[#   2]+0.003*[#   9]+0.003*[#  12]
    |psi|^2 = 0.996
==== e(   9) =    19.99490 eV ==== 
     psi = 0.333*[#  10]+0.333*[#  11]+0.333*[#  13]
    |psi|^2 = 1.000
==== e(  10) =    24.64987 eV ==== 
     psi = 0.179*[#   2]+0.067*[#   9]+0.067*[#  12]+0.003*[#   6]+0.003*[#   7]
          +0.003*[#   8]+0.001*[#  10]+0.001*[#  11]+0.001*[#  13]
    |psi|^2 = 0.327
==== e(  11) =    29.06745 eV ==== 
     psi = 0.517*[#   6]+0.517*[#   7]+0.517*[#   8]+0.034*[#   2]+0.014*[#  10]
          +0.014*[#  11]+0.014*[#  13]+0.004*[#   9]+0.004*[#  12]
    |psi|^2 = 1.637
==== e(  12) =    29.51579 eV ==== 
     psi = 0.310*[#   6]+0.310*[#   7]+0.310*[#   8]+0.013*[#  10]+0.013*[#  11]
          +0.013*[#  13]
    |psi|^2 = 0.970

 k =   0.0000000000 -0.1000000000  0.8500000000
==== e(   1) =   -67.36700 eV ==== 
     psi = 0.937*[#   1]+0.053*[#   2]+0.003*[#   6]+0.003*[#   7]+0.003*[#   8]
          
    |psi|^2 = 1.000
==== e(   2) =   -33.66463 eV ==== 
     psi = 0.142*[#   3]+0.142*[#   4]+0.142*[#   5]
    |psi|^2 = 0.428
==== e(   3) =   -33.62328 eV ==== 
     psi = 0.523*[#   3]+0.523*[#   4]+0.523*[#   5]
    |psi|^2 = 1.571
==== e(   4) =   -33.60462 eV ==== 
     psi = 0.190*[#   3]+0.190*[#   4]+0.190*[#   5]+0.002*[#   2]
    |psi|^2 = 0.574
==== e(   5) =    15.14238 eV ==== 
     psi = 0.447*[#   9]+0.447*[#  12]+0.029*[#   6]+0.029*[#   7]+0.029*[#   8]
          +0.002*[#   2]
    |psi|^2 = 0.987
==== e(   6) =    15.19834 eV ==== 
     psi = 0.471*[#   9]+0.471*[#  12]+0.011*[#   6]+0.011*[#   7]+0.011*[#   8]
          +0.001*[#  10]+0.001*[#  11]+0.001*[#  13]
    |psi|^2 = 0.980
==== e(   7) =    19.32988 eV ==== 
     psi = 0.323*[#  10]+0.323*[#  11]+0.323*[#  13]+0.010*[#   6]+0.010*[#   7]
          +0.010*[#   8]
    |psi|^2 = 0.999
==== e(   8) =    19.49649 eV ==== 
     psi = 0.314*[#  10]+0.314*[#  11]+0.314*[#  13]+0.008*[#   2]+0.008*[#   6]
          +0.008*[#   7]+0.008*[#   8]+0.007*[#   9]+0.007*[#  12]
    |psi|^2 = 0.988
==== e(   9) =    20.19163 eV ==== 
     psi = 0.333*[#  10]+0.333*[#  11]+0.333*[#  13]
    |psi|^2 = 1.000
==== e(  10) =    25.94647 eV ==== 
     psi = 0.083*[#   2]+0.044*[#   9]+0.044*[#  12]+0.023*[#   6]+0.023*[#   7]
          +0.023*[#   8]+0.003*[#  10]+0.003*[#  11]+0.003*[#  13]
    |psi|^2 = 0.250
==== e(  11) =    27.65000 eV ==== 
     psi = 0.505*[#   6]+0.505*[#   7]+0.505*[#   8]+0.122*[#   2]+0.013*[#  10]
          +0.013*[#  11]+0.013*[#  13]+0.013*[#   9]+0.013*[#  12]
    |psi|^2 = 1.703
==== e(  12) =    29.13352 eV ==== 
     psi = 0.315*[#   6]+0.315*[#   7]+0.315*[#   8]+0.011*[#  10]+0.011*[#  11]
          +0.011*[#  13]
    |psi|^2 = 0.976

 k =  -0.0500000000 -0.0500000000  0.8500000000
==== e(   1) =   -67.36575 eV ==== 
     psi = 0.937*[#   1]+0.055*[#   2]+0.003*[#   6]+0.003*[#   7]+0.003*[#   8]
          
    |psi|^2 = 1.000
==== e(   2) =   -33.65609 eV ==== 
     psi = 0.099*[#   3]+0.099*[#   4]+0.099*[#   5]
    |psi|^2 = 0.300
==== e(   3) =   -33.63353 eV ==== 
     psi = 0.567*[#   3]+0.567*[#   4]+0.567*[#   5]
    |psi|^2 = 1.701
==== e(   4) =   -33.61036 eV ==== 
     psi = 0.283*[#   3]+0.283*[#   4]+0.283*[#   5]+0.001*[#   2]
    |psi|^2 = 0.853
==== e(   5) =    15.09216 eV ==== 
     psi = 0.448*[#   9]+0.448*[#  12]+0.029*[#   6]+0.029*[#   7]+0.029*[#   8]
          +0.002*[#   2]
    |psi|^2 = 0.987
==== e(   6) =    15.17011 eV ==== 
     psi = 0.480*[#   9]+0.480*[#  12]+0.006*[#   6]+0.006*[#   7]+0.006*[#   8]
          
    |psi|^2 = 0.980
==== e(   7) =    19.39691 eV ==== 
     psi = 0.320*[#  10]+0.320*[#  11]+0.320*[#  13]+0.010*[#   6]+0.010*[#   7]
          +0.010*[#   8]+0.004*[#   2]
    |psi|^2 = 0.995
==== e(   8) =    19.72004 eV ==== 
     psi = 0.322*[#  10]+0.322*[#  11]+0.322*[#  13]+0.012*[#   6]+0.012*[#   7]
          +0.012*[#   8]+0.002*[#   9]+0.002*[#  12]
    |psi|^2 = 1.007
==== e(   9) =    20.10502 eV ==== 
     psi = 0.332*[#  10]+0.332*[#  11]+0.332*[#  13]
    |psi|^2 = 1.000
==== e(  10) =    25.82981 eV ==== 
     psi = 0.114*[#   2]+0.041*[#   9]+0.041*[#  12]+0.005*[#   6]+0.005*[#   7]
          +0.005*[#   8]+0.003*[#  10]+0.003*[#  11]+0.003*[#  13]
    |psi|^2 = 0.221
==== e(  11) =    28.45177 eV ==== 
     psi = 0.569*[#   6]+0.569*[#   7]+0.569*[#   8]+0.010*[#  10]+0.010*[#  11]
          +0.010*[#  13]+0.008*[#   9]+0.008*[#  12]
    |psi|^2 = 1.753
==== e(  12) =    28.59047 eV ==== 
     psi = 0.294*[#   6]+0.294*[#   7]+0.294*[#   8]+0.064*[#   2]+0.011*[#  10]
          +0.011*[#  11]+0.011*[#  13]+0.001*[#   9]+0.001*[#  12]
    |psi|^2 = 0.984

 k =  -0.0500000000  0.9000000000 -0.1000000000
==== e(   1) =   -67.36429 eV ==== 
     psi = 0.936*[#   1]+0.057*[#   2]+0.003*[#   6]+0.003*[#   7]+0.003*[#   8]
          
    |psi|^2 = 1.000
==== e(   2) =   -33.65802 eV ==== 
     psi = 0.167*[#   3]+0.167*[#   4]+0.167*[#   5]
    |psi|^2 = 0.501
==== e(   3) =   -33.64093 eV ==== 
     psi = 0.455*[#   3]+0.455*[#   4]+0.455*[#   5]
    |psi|^2 = 1.366
==== e(   4) =   -33.60989 eV ==== 
     psi = 0.211*[#   3]+0.211*[#   4]+0.211*[#   5]+0.001*[#   2]
    |psi|^2 = 0.634
==== e(   5) =    15.08875 eV ==== 
     psi = 0.462*[#   9]+0.462*[#  12]+0.019*[#   6]+0.019*[#   7]+0.019*[#   8]
          
    |psi|^2 = 0.983
==== e(   6) =    15.10233 eV ==== 
     psi = 0.473*[#   9]+0.473*[#  12]+0.007*[#   6]+0.007*[#   7]+0.007*[#   8]
          
    |psi|^2 = 0.969
==== e(   7) =    19.41275 eV ==== 
     psi = 0.321*[#  10]+0.321*[#  11]+0.321*[#  13]+0.011*[#   6]+0.011*[#   7]
          +0.011*[#   8]+0.004*[#   2]
    |psi|^2 = 1.001
==== e(   8) =    19.86608 eV ==== 
     psi = 0.324*[#  10]+0.324*[#  11]+0.324*[#  13]+0.008*[#   6]+0.008*[#   7]
          +0.008*[#   8]+0.003*[#   9]+0.003*[#  12]
    |psi|^2 = 1.004
==== e(   9) =    20.14717 eV ==== 
     psi = 0.331*[#  10]+0.331*[#  11]+0.331*[#  13]+0.001*[#   6]+0.001*[#   7]
          +0.001*[#   8]+0.001*[#   9]+0.001*[#  12]
    |psi|^2 = 1.000
==== e(  10) =    26.92964 eV ==== 
     psi = 0.155*[#   6]+0.155*[#   7]+0.155*[#   8]+0.029*[#   9]+0.029*[#  12]
          +0.002*[#  10]+0.002*[#  11]+0.002*[#  13]
    |psi|^2 = 0.528
==== e(  11) =    27.41646 eV ==== 
     psi = 0.297*[#   6]+0.297*[#   7]+0.297*[#   8]+0.119*[#   2]+0.012*[#   9]
          +0.012*[#  12]+0.011*[#  10]+0.011*[#  11]+0.011*[#  13]
    |psi|^2 = 1.065
==== e(  12) =    28.34505 eV ==== 
     psi = 0.296*[#   6]+0.296*[#   7]+0.296*[#   8]+0.050*[#   2]+0.009*[#  10]
          +0.009*[#  11]+0.009*[#  13]+0.003*[#   9]+0.003*[#  12]
    |psi|^2 = 0.972

 k =   0.0000000000  0.0000000000  0.8500000000
==== e(   1) =   -67.36453 eV ==== 
     psi = 0.937*[#   1]+0.056*[#   2]+0.002*[#   6]+0.002*[#   7]+0.002*[#   8]
          
    |psi|^2 = 1.000
==== e(   2) =   -33.64629 eV ==== 
     psi = 0.002*[#   2]
    |psi|^2 = 0.003
==== e(   3) =   -33.63089 eV ==== 
     psi = 0.665*[#   3]+0.665*[#   4]+0.665*[#   5]
    |psi|^2 = 1.997
==== e(   4) =   -33.63089 eV ==== 
     psi = 0.333*[#   3]+0.333*[#   4]+0.333*[#   5]
    |psi|^2 = 1.000
==== e(   5) =    15.04160 eV ==== 
     psi = 0.450*[#   9]+0.450*[#  12]+0.028*[#   6]+0.028*[#   7]+0.028*[#   8]
          +0.003*[#   2]
    |psi|^2 = 0.987
==== e(   6) =    15.13724 eV ==== 
     psi = 0.488*[#   9]+0.488*[#  12]
    |psi|^2 = 0.975
==== e(   7) =    19.70861 eV ==== 
     psi = 0.324*[#  10]+0.324*[#  11]+0.324*[#  13]+0.010*[#   6]+0.010*[#   7]
          +0.010*[#   8]
    |psi|^2 = 1.000
==== e(   8) =    19.70861 eV ==== 
     psi = 0.324*[#  10]+0.324*[#  11]+0.324*[#  13]+0.010*[#   6]+0.010*[#   7]
          +0.010*[#   8]
    |psi|^2 = 1.000
==== e(   9) =    20.02473 eV ==== 
     psi = 0.333*[#  10]+0.333*[#  11]+0.333*[#  13]
    |psi|^2 = 1.000
==== e(  10) =    25.66467 eV ==== 
     psi = 0.130*[#   2]+0.041*[#   9]+0.041*[#  12]
    |psi|^2 = 0.212
==== e(  11) =    28.77022 eV ==== 
     psi = 0.578*[#   6]+0.578*[#   7]+0.578*[#   8]+0.010*[#  10]+0.010*[#  11]
          +0.010*[#  13]
    |psi|^2 = 1.762
==== e(  12) =    28.77022 eV ==== 
     psi = 0.317*[#   6]+0.317*[#   7]+0.317*[#   8]+0.010*[#  10]+0.010*[#  11]
          +0.010*[#  13]
    |psi|^2 = 0.982

 k =   0.0000000000 -0.0500000000  0.9000000000
==== e(   1) =   -67.36163 eV ==== 
     psi = 0.936*[#   1]+0.060*[#   2]+0.001*[#   6]+0.001*[#   7]+0.001*[#   8]
          
    |psi|^2 = 1.000
==== e(   2) =   -33.65341 eV ==== 
     psi = 0.127*[#   3]+0.127*[#   4]+0.127*[#   5]
    |psi|^2 = 0.381
==== e(   3) =   -33.63846 eV ==== 
     psi = 0.540*[#   3]+0.540*[#   4]+0.540*[#   5]
    |psi|^2 = 1.619
==== e(   4) =   -33.63214 eV ==== 
     psi = 0.206*[#   3]+0.206*[#   4]+0.206*[#   5]
    |psi|^2 = 0.621
==== e(   5) =    14.99682 eV ==== 
     psi = 0.469*[#   9]+0.469*[#  12]+0.014*[#   6]+0.014*[#   7]+0.014*[#   8]
          
    |psi|^2 = 0.981
==== e(   6) =    15.02717 eV ==== 
     psi = 0.484*[#   9]+0.484*[#  12]+0.003*[#   6]+0.003*[#   7]+0.003*[#   8]
          
    |psi|^2 = 0.976
==== e(   7) =    19.83118 eV ==== 
     psi = 0.327*[#  10]+0.327*[#  11]+0.327*[#  13]+0.006*[#   6]+0.006*[#   7]
          +0.006*[#   8]
    |psi|^2 = 1.000
==== e(   8) =    19.89391 eV ==== 
     psi = 0.326*[#  10]+0.326*[#  11]+0.326*[#  13]+0.005*[#   6]+0.005*[#   7]
          +0.005*[#   8]+0.001*[#   2]
    |psi|^2 = 0.996
==== e(   9) =    20.16456 eV ==== 
     psi = 0.333*[#  10]+0.333*[#  11]+0.333*[#  13]
    |psi|^2 = 1.000
==== e(  10) =    26.78390 eV ==== 
     psi = 0.060*[#   2]+0.021*[#   9]+0.021*[#  12]+0.006*[#   6]+0.006*[#   7]
          +0.006*[#   8]
    |psi|^2 = 0.124
==== e(  11) =    27.94274 eV ==== 
     psi = 0.596*[#   6]+0.596*[#   7]+0.596*[#   8]+0.032*[#   2]+0.006*[#  10]
          +0.006*[#  11]+0.006*[#  13]+0.004*[#   9]+0.004*[#  12]
    |psi|^2 = 1.848
==== e(  12) =    28.36039 eV ==== 
     psi = 0.323*[#   6]+0.323*[#   7]+0.323*[#   8]+0.006*[#  10]+0.006*[#  11]
          +0.006*[#  13]
    |psi|^2 = 0.988

 k =  -0.0500000000  0.9500000000 -0.0500000000
==== e(   1) =   -67.36020 eV ==== 
     psi = 0.936*[#   1]+0.061*[#   2]
    |psi|^2 = 1.000
==== e(   2) =   -33.64926 eV ==== 
     psi = 0.200*[#   3]+0.200*[#   4]+0.200*[#   5]
    |psi|^2 = 0.602
==== e(   3) =   -33.64926 eV ==== 
     psi = 0.377*[#   3]+0.377*[#   4]+0.377*[#   5]
    |psi|^2 = 1.131
==== e(   4) =   -33.63341 eV ==== 
     psi = 0.232*[#   3]+0.232*[#   4]+0.232*[#   5]
    |psi|^2 = 0.697
==== e(   5) =    14.97039 eV ==== 
     psi = 0.481*[#   9]+0.481*[#  12]+0.005*[#   6]+0.005*[#   7]+0.005*[#   8]
          
    |psi|^2 = 0.977
==== e(   6) =    14.97039 eV ==== 
     psi = 0.481*[#   9]+0.481*[#  12]+0.005*[#   6]+0.005*[#   7]+0.005*[#   8]
          
    |psi|^2 = 0.977
==== e(   7) =    19.88331 eV ==== 
     psi = 0.328*[#  10]+0.328*[#  11]+0.328*[#  13]+0.007*[#   6]+0.007*[#   7]
          +0.007*[#   8]
    |psi|^2 = 1.004
==== e(   8) =    20.12538 eV ==== 
     psi = 0.332*[#  10]+0.332*[#  11]+0.332*[#  13]
    |psi|^2 = 0.998
==== e(   9) =    20.12538 eV ==== 
     psi = 0.332*[#  10]+0.332*[#  11]+0.332*[#  13]+0.001*[#   6]+0.001*[#   7]
          +0.001*[#   8]
    |psi|^2 = 1.000
==== e(  10) =    27.64543 eV ==== 
     psi = 0.267*[#   6]+0.267*[#   7]+0.267*[#   8]+0.008*[#   9]+0.008*[#  12]
          +0.002*[#  10]+0.002*[#  11]+0.002*[#  13]
    |psi|^2 = 0.823
==== e(  11) =    27.64543 eV ==== 
     psi = 0.222*[#   6]+0.222*[#   7]+0.222*[#   8]+0.008*[#   9]+0.008*[#  12]
          +0.002*[#  10]+0.002*[#  11]+0.002*[#  13]
    |psi|^2 = 0.687
==== e(  12) =    27.85742 eV ==== 
     psi = 0.417*[#   6]+0.417*[#   7]+0.417*[#   8]+0.064*[#   2]+0.005*[#  10]
          +0.005*[#  11]+0.005*[#  13]
    |psi|^2 = 1.332

 k =   0.0000000000  0.0000000000  0.9500000000
==== e(   1) =   -67.35881 eV ==== 
     psi = 0.936*[#   1]+0.063*[#   2]
    |psi|^2 = 1.000
==== e(   2) =   -33.64805 eV ==== 

    |psi|^2 = 0.000
==== e(   3) =   -33.64665 eV ==== 
     psi = 0.666*[#   3]+0.666*[#   4]+0.666*[#   5]
    |psi|^2 = 2.000
==== e(   4) =   -33.64665 eV ==== 
     psi = 0.333*[#   3]+0.333*[#   4]+0.333*[#   5]
    |psi|^2 = 1.000
==== e(   5) =    14.92263 eV ==== 
     psi = 0.483*[#   9]+0.483*[#  12]+0.004*[#   6]+0.004*[#   7]+0.004*[#   8]
          
    |psi|^2 = 0.977
==== e(   6) =    14.93099 eV ==== 
     psi = 0.487*[#   9]+0.487*[#  12]
    |psi|^2 = 0.975
==== e(   7) =    20.11783 eV ==== 
     psi = 0.332*[#  10]+0.332*[#  11]+0.332*[#  13]+0.002*[#   6]+0.002*[#   7]
          +0.002*[#   8]
    |psi|^2 = 1.000
==== e(   8) =    20.11783 eV ==== 
     psi = 0.332*[#  10]+0.332*[#  11]+0.332*[#  13]+0.002*[#   6]+0.002*[#   7]
          +0.002*[#   8]
    |psi|^2 = 1.000
==== e(   9) =    20.15961 eV ==== 
     psi = 0.333*[#  10]+0.333*[#  11]+0.333*[#  13]
    |psi|^2 = 1.000
==== e(  10) =    27.49927 eV ==== 
     psi = 0.021*[#   2]+0.006*[#   9]+0.006*[#  12]
    |psi|^2 = 0.032
==== e(  11) =    27.92930 eV ==== 
     psi = 0.650*[#   6]+0.650*[#   7]+0.650*[#   8]+0.002*[#  10]+0.002*[#  11]
          +0.002*[#  13]
    |psi|^2 = 1.955
==== e(  12) =    27.92930 eV ==== 
     psi = 0.330*[#   6]+0.330*[#   7]+0.330*[#   8]+0.002*[#  10]+0.002*[#  11]
          +0.002*[#  13]
    |psi|^2 = 0.993

Lowdin Charges: 

     Atom #   1: total charge =  15.2736, s =  2.2874, p =  6.3712, d =  6.6150, 
                 spin up      =   8.7490, s =  1.1339, 
                 spin up      =   8.7490, p =  3.1223, pz=  1.0408, px=  1.0408, py=  1.0408, 
                 spin up      =   8.7490, d =  4.4929, dz2=  0.9444, dxz=  0.8680, dyz=  0.8680, dx2-y2=  0.9444, dxy=  0.8680, 
                 spin down    =   6.5246, s =  1.1535, 
                 spin down    =   6.5246, p =  3.2489, pz=  1.0830, px=  1.0830, py=  1.0830, 
                 spin down    =   6.5246, d =  2.1221, dz2=  0.3018, dxz=  0.5062, dyz=  0.5062, dx2-y2=  0.3018, dxy=  0.5062, 
                 polarization =   2.2245, s = -0.0197, p = -0.1266, d =  2.3707, 
     Spilling Parameter:   0.0454

     PROJWFC      :      4.21s CPU      4.78s WALL


   This run was terminated on:   1:17:46   7May2021            

=------------------------------------------------------------------------------=
   JOB DONE.
=------------------------------------------------------------------------------=
