
     Program PHONON v.6.4.1 starts on 29Aug2019 at 18: 1:55 

     This program is part of the open-source Quantum ESPRESSO suite
     for quantum simulation of materials; please cite
         "P. Giannozzi et al., J. Phys.:Condens. Matter 21 395502 (2009);
         "P. Giannozzi et al., J. Phys.:Condens. Matter 29 465901 (2017);
          URL http://www.quantum-espresso.org", 
     in publications or presentations arising from this work. More details at
     http://www.quantum-espresso.org/quote

     Parallel version (MPI), running on     8 processors

     MPI processes distributed on     1 nodes
     R & G space division:  proc/nbgrp/npool/nimage =       8

     Reading data from directory:
     ./out/AlAs.save/

     IMPORTANT: XC functional enforced from input :
     Exchange-correlation      = PZ ( 1  1  0  0 0 0)
     Any further DFT definition will be discarded
     Please, verify this is what you really want

 
     Parallelization info
     --------------------
     sticks:   dense  smooth     PW     G-vecs:    dense   smooth      PW
     Min          30      30     10                  305      305      57
     Max          31      31     11                  308      308      58
     Sum         241     241     85                 2445     2445     459
 

     Calculation of q =    0.0000000   0.0000000   0.0000000

     Phonons at Gamma                                                           

     bravais-lattice index     =            2
     lattice parameter (alat)  =      10.5000  a.u.
     unit-cell volume          =     289.4062 (a.u.)^3
     number of atoms/cell      =            2
     number of atomic types    =            2
     kinetic-energy cut-off    =      16.0000  Ry
     charge density cut-off    =      64.0000  Ry
     convergence threshold     =      1.0E-14
     beta                      =       0.7000
     number of iterations used =            4
     Exchange-correlation      = PZ ( 1  1  0  0 0 0)


     celldm(1)=   10.50000  celldm(2)=    0.00000  celldm(3)=    0.00000
     celldm(4)=    0.00000  celldm(5)=    0.00000  celldm(6)=    0.00000

     crystal axes: (cart. coord. in units of alat)
               a(1) = ( -0.5000  0.0000  0.5000 )  
               a(2) = (  0.0000  0.5000  0.5000 )  
               a(3) = ( -0.5000  0.5000  0.0000 )  

     reciprocal axes: (cart. coord. in units 2 pi/alat)
               b(1) = ( -1.0000 -1.0000  1.0000 )  
               b(2) = (  1.0000  1.0000  1.0000 )  
               b(3) = ( -1.0000  1.0000 -1.0000 )  


     Atoms inside the unit cell: 

     Cartesian axes

     site n.  atom      mass           positions (alat units)
        1     Al  26.9800   tau(    1) = (    0.00000    0.00000    0.00000  )
        2     As  74.9200   tau(    2) = (    0.25000    0.25000    0.25000  )

     Computing dynamical matrix for 
                    q = (   0.0000000   0.0000000   0.0000000 )
 
     25 Sym.Ops. (with q -> -q+G )


     G cutoff =  178.7306  (    306 G-vectors)     FFT grid: ( 20, 20, 20)
     number of k points=     2
                       cart. coord. in units 2pi/alat
        k(    1) = (   0.2500000   0.2500000   0.2500000), wk =   0.5000000
        k(    2) = (   0.2500000   0.2500000   0.7500000), wk =   1.5000000

     PseudoPot. # 1 for Al read from file:
     ./Al.pz-vbc.UPF
     MD5 check sum: 13b59ac2968bcb74bf87a15840bc9960
     Pseudo is Norm-conserving, Zval =  3.0
     Generated by new atomic code, or converted to UPF format
     Using radial grid of  171 points,  2 beta functions with: 
                l(1) =   0
                l(2) =   1

     PseudoPot. # 2 for As read from file:
     ./As.pz-bhs.UPF
     MD5 check sum: d9127a8b584737f42ec2fe47e3acdea8
     Pseudo is Norm-conserving, Zval =  5.0
     Generated by new atomic code, or converted to UPF format
     Using radial grid of  525 points,  2 beta functions with: 
                l(1) =   0
                l(2) =   1

     Mode symmetry, T_d (-43m)  point group:


     Electric field:
     Dielectric constant
     Born effective charges as d Force / d E


     Atomic displacements:
     There are   2 irreducible representations

     Representation     1      3 modes -T_2  G_15 P_4  To be done

     Representation     2      3 modes -T_2  G_15 P_4  To be done



     Alpha used in Ewald sum =   0.7000
     PHONON       :      0.15s CPU      0.30s WALL


     Electric Fields Calculation

      iter #   1 total cpu time :     0.5 secs   av.it.:   6.0
      thresh= 1.000E-02 alpha_mix =  0.700 |ddv_scf|^2 =  9.208E-07

      iter #   2 total cpu time :     0.6 secs   av.it.:   9.5
      thresh= 9.596E-05 alpha_mix =  0.700 |ddv_scf|^2 =  4.519E-08

      iter #   3 total cpu time :     0.7 secs   av.it.:   9.7
      thresh= 2.126E-05 alpha_mix =  0.700 |ddv_scf|^2 =  4.445E-10

      iter #   4 total cpu time :     0.8 secs   av.it.:   9.8
      thresh= 2.108E-06 alpha_mix =  0.700 |ddv_scf|^2 =  2.158E-12

      iter #   5 total cpu time :     1.0 secs   av.it.:   9.3
      thresh= 1.469E-07 alpha_mix =  0.700 |ddv_scf|^2 =  1.073E-14

      iter #   6 total cpu time :     1.1 secs   av.it.:   9.8
      thresh= 1.036E-08 alpha_mix =  0.700 |ddv_scf|^2 =  1.160E-16

     End of electric fields calculation

          Dielectric constant in cartesian axis 

          (      13.743494475      -0.000000000       0.000000000 )
          (      -0.000000000      13.743494475       0.000000000 )
          (       0.000000000       0.000000000      13.743494475 )

          Effective charges (d Force / dE) in cartesian axis

           atom      1   Al 
      Ex  (        1.88274        0.00000        0.00000 )
      Ey  (        0.00000        1.88274       -0.00000 )
      Ez  (        0.00000       -0.00000        1.88274 )
           atom      2   As 
      Ex  (       -3.23377       -0.00000        0.00000 )
      Ey  (       -0.00000       -3.23377        0.00000 )
      Ez  (       -0.00000        0.00000       -3.23377 )


     Representation #  1 modes #   1  2  3

     Self-consistent Calculation

      iter #   1 total cpu time :     1.2 secs   av.it.:   5.8
      thresh= 1.000E-02 alpha_mix =  0.700 |ddv_scf|^2 =  3.236E-07

      iter #   2 total cpu time :     1.3 secs   av.it.:  10.3
      thresh= 5.689E-05 alpha_mix =  0.700 |ddv_scf|^2 =  1.573E-08

      iter #   3 total cpu time :     1.5 secs   av.it.:  10.0
      thresh= 1.254E-05 alpha_mix =  0.700 |ddv_scf|^2 =  2.635E-11

      iter #   4 total cpu time :     1.6 secs   av.it.:   9.5
      thresh= 5.133E-07 alpha_mix =  0.700 |ddv_scf|^2 =  4.975E-13

      iter #   5 total cpu time :     1.8 secs   av.it.:   9.5
      thresh= 7.054E-08 alpha_mix =  0.700 |ddv_scf|^2 =  5.080E-15

     End of self-consistent calculation

     Convergence has been achieved 


     Representation #  2 modes #   4  5  6

     Self-consistent Calculation

      iter #   1 total cpu time :     1.9 secs   av.it.:   4.8
      thresh= 1.000E-02 alpha_mix =  0.700 |ddv_scf|^2 =  2.022E-08

      iter #   2 total cpu time :     2.0 secs   av.it.:  10.3
      thresh= 1.422E-05 alpha_mix =  0.700 |ddv_scf|^2 =  2.226E-10

      iter #   3 total cpu time :     2.2 secs   av.it.:   9.8
      thresh= 1.492E-06 alpha_mix =  0.700 |ddv_scf|^2 =  2.071E-11

      iter #   4 total cpu time :     2.3 secs   av.it.:   9.5
      thresh= 4.551E-07 alpha_mix =  0.700 |ddv_scf|^2 =  8.522E-13

      iter #   5 total cpu time :     2.4 secs   av.it.:   9.8
      thresh= 9.231E-08 alpha_mix =  0.700 |ddv_scf|^2 =  3.280E-16

     End of self-consistent calculation

     Convergence has been achieved 
 
     Number of q in the star =    1
     List of q in the star:
          1   0.000000000   0.000000000   0.000000000

          Dielectric constant in cartesian axis 

          (      13.743494475      -0.000000000       0.000000000 )
          (      -0.000000000      13.743494475       0.000000000 )
          (       0.000000000       0.000000000      13.743494475 )

          Effective charges (d Force / dE) in cartesian axis

           atom      1   Al 
      Ex  (        1.88274        0.00000        0.00000 )
      Ey  (        0.00000        1.88274       -0.00000 )
      Ez  (        0.00000       -0.00000        1.88274 )
           atom      2   As 
      Ex  (       -3.23377       -0.00000        0.00000 )
      Ey  (       -0.00000       -3.23377        0.00000 )
      Ez  (       -0.00000        0.00000       -3.23377 )

     Diagonalizing the dynamical matrix

     q = (    0.000000000   0.000000000   0.000000000 ) 

 **************************************************************************
     freq (    1) =       0.147836 [THz] =       4.931268 [cm-1]
     freq (    2) =       0.147836 [THz] =       4.931268 [cm-1]
     freq (    3) =       0.147836 [THz] =       4.931268 [cm-1]
     freq (    4) =      11.258207 [THz] =     375.533365 [cm-1]
     freq (    5) =      11.258207 [THz] =     375.533365 [cm-1]
     freq (    6) =      11.258207 [THz] =     375.533365 [cm-1]
 **************************************************************************

     Mode symmetry, T_d (-43m)  point group:

     freq (  1 -  3) =          4.9  [cm-1]   --> T_2  G_15 P_4   I+R
     freq (  4 -  6) =        375.5  [cm-1]   --> T_2  G_15 P_4   I+R
 
     PHONON       :      1.48s CPU      2.53s WALL

     INITIALIZATION: 
     phq_setup    :      0.01s CPU      0.02s WALL (       1 calls)
     phq_init     :      0.01s CPU      0.01s WALL (       1 calls)
 
     phq_init     :      0.01s CPU      0.01s WALL (       1 calls)
     init_vloc    :      0.00s CPU      0.00s WALL (       1 calls)
     init_us_1    :      0.00s CPU      0.00s WALL (       1 calls)
 
     DIELECTRIC CONSTANT AND EFFECTIVE CHARGES:
     solve_e      :      0.48s CPU      0.79s WALL (       1 calls)
     dielec       :      0.00s CPU      0.01s WALL (       1 calls)
     zstar_eu     :      0.01s CPU      0.02s WALL (       1 calls)
 
     DYNAMICAL MATRIX:
     dynmat0      :      0.00s CPU      0.01s WALL (       1 calls)
     phqscf       :      0.83s CPU      1.35s WALL (       1 calls)
     dynmatrix    :      0.00s CPU      0.01s WALL (       1 calls)
 
     phqscf       :      0.83s CPU      1.35s WALL (       1 calls)
     solve_linter :      0.82s CPU      1.29s WALL (       2 calls)
     drhodv       :      0.01s CPU      0.01s WALL (       2 calls)
 
     dynmat0      :      0.00s CPU      0.01s WALL (       1 calls)
     dynmat_us    :      0.00s CPU      0.00s WALL (       1 calls)
     d2ionq       :      0.00s CPU      0.00s WALL (       1 calls)
 
     dynmat_us    :      0.00s CPU      0.00s WALL (       1 calls)
 
     phqscf       :      0.83s CPU      1.35s WALL (       1 calls)
     solve_linter :      0.82s CPU      1.29s WALL (       2 calls)
 
     solve_linter :      0.82s CPU      1.29s WALL (       2 calls)
     dvqpsi_us    :      0.02s CPU      0.02s WALL (      24 calls)
     ortho        :      0.00s CPU      0.01s WALL (     102 calls)
     cgsolve      :      0.66s CPU      0.83s WALL (     102 calls)
     incdrhoscf   :      0.04s CPU      0.05s WALL (      96 calls)
     vpsifft      :      0.03s CPU      0.03s WALL (      48 calls)
     dv_of_drho   :      0.01s CPU      0.02s WALL (      48 calls)
     mix_pot      :      0.02s CPU      0.30s WALL (      16 calls)
     psymdvscf    :      0.33s CPU      0.33s WALL (      10 calls)
 
     dvqpsi_us    :      0.02s CPU      0.02s WALL (      24 calls)
     dvqpsi_us_on :      0.00s CPU      0.00s WALL (      24 calls)
 
     cgsolve      :      0.66s CPU      0.83s WALL (     102 calls)
     ch_psi       :      0.60s CPU      0.75s WALL (    1129 calls)
 
     ch_psi       :      0.60s CPU      0.75s WALL (    1129 calls)
     h_psi        :      0.51s CPU      0.64s WALL (    1129 calls)
     last         :      0.08s CPU      0.09s WALL (    1129 calls)
 
     h_psi        :      0.51s CPU      0.64s WALL (    1129 calls)
     add_vuspsi   :      0.01s CPU      0.02s WALL (    1129 calls)
 
     incdrhoscf   :      0.04s CPU      0.05s WALL (      96 calls)
 
 
      General routines
     calbec       :      0.07s CPU      0.09s WALL (    2332 calls)
     fft          :      0.01s CPU      0.03s WALL (     149 calls)
     ffts         :      0.00s CPU      0.01s WALL (      36 calls)
     fftw         :      0.48s CPU      0.61s WALL (    9654 calls)
     davcio       :      0.01s CPU      0.01s WALL (     472 calls)
     write_rec    :      0.04s CPU      0.35s WALL (      18 calls)
 
 
     PHONON       :      1.48s CPU      2.53s WALL

 
   This run was terminated on:  18: 1:57  29Aug2019            

=------------------------------------------------------------------------------=
   JOB DONE.
=------------------------------------------------------------------------------=
