
     Program PHONON v.6.4.1 starts on 30Aug2019 at 21:31:46 

     This program is part of the open-source Quantum ESPRESSO suite
     for quantum simulation of materials; please cite
         "P. Giannozzi et al., J. Phys.:Condens. Matter 21 395502 (2009);
         "P. Giannozzi et al., J. Phys.:Condens. Matter 29 465901 (2017);
          URL http://www.quantum-espresso.org", 
     in publications or presentations arising from this work. More details at
     http://www.quantum-espresso.org/quote

     Parallel version (MPI), running on     8 processors

     MPI processes distributed on     1 nodes
     R & G space division:  proc/nbgrp/npool/nimage =       8

     Reading data from directory:
     ./out/Si.save/

     IMPORTANT: XC functional enforced from input :
     Exchange-correlation      = PZ ( 1  1  0  0 0 0)
     Any further DFT definition will be discarded
     Please, verify this is what you really want

 
     Parallelization info
     --------------------
     sticks:   dense  smooth     PW     G-vecs:    dense   smooth      PW
     Min          29      29      9                  284      284      51
     Max          30      30     10                  285      285      52
     Sum         235     235     73                 2277     2277     411
 


     Dynamical matrices for ( 4, 4, 4)  uniform grid of q-points
     (   8 q-points):
       N         xq(1)         xq(2)         xq(3) 
       1   0.000000000   0.000000000   0.000000000
       2  -0.250000000   0.250000000  -0.250000000
       3   0.500000000  -0.500000000   0.500000000
       4   0.000000000   0.500000000   0.000000000
       5   0.750000000  -0.250000000   0.750000000
       6   0.500000000   0.000000000   0.500000000
       7   0.000000000  -1.000000000   0.000000000
       8  -0.500000000  -1.000000000   0.000000000

     Calculation of q =    0.0000000   0.0000000   0.0000000

     Phonons on a uniform q-grid                                                

     bravais-lattice index     =            2
     lattice parameter (alat)  =      10.2000  a.u.
     unit-cell volume          =     265.3020 (a.u.)^3
     number of atoms/cell      =            2
     number of atomic types    =            1
     kinetic-energy cut-off    =      16.0000  Ry
     charge density cut-off    =      64.0000  Ry
     convergence threshold     =      1.0E-14
     beta                      =       0.7000
     number of iterations used =            4
     Exchange-correlation      = PZ ( 1  1  0  0 0 0)


     celldm(1)=   10.20000  celldm(2)=    0.00000  celldm(3)=    0.00000
     celldm(4)=    0.00000  celldm(5)=    0.00000  celldm(6)=    0.00000

     crystal axes: (cart. coord. in units of alat)
               a(1) = ( -0.5000  0.0000  0.5000 )  
               a(2) = (  0.0000  0.5000  0.5000 )  
               a(3) = ( -0.5000  0.5000  0.0000 )  

     reciprocal axes: (cart. coord. in units 2 pi/alat)
               b(1) = ( -1.0000 -1.0000  1.0000 )  
               b(2) = (  1.0000  1.0000  1.0000 )  
               b(3) = ( -1.0000  1.0000 -1.0000 )  


     Atoms inside the unit cell: 

     Cartesian axes

     site n.  atom      mass           positions (alat units)
        1     Si  28.0855   tau(    1) = (    0.00000    0.00000    0.00000  )
        2     Si  28.0855   tau(    2) = (    0.25000    0.25000    0.25000  )

     Computing dynamical matrix for 
                    q = (   0.0000000   0.0000000   0.0000000 )
 
     49 Sym.Ops. (with q -> -q+G )


     G cutoff =  168.6633  (    285 G-vectors)     FFT grid: ( 20, 20, 20)
     number of k points=    10

     PseudoPot. # 1 for Si read from file:
     ./Si.vbc.UPF
     MD5 check sum: bcd8ae23180a2f07cc8655fe7dcd9644
     Pseudo is Norm-conserving, Zval =  4.0
     Generated by new atomic code, or converted to UPF format
     Using radial grid of  431 points,  2 beta functions with: 
                l(1) =   0
                l(2) =   1

     Mode symmetry, O_h (m-3m)  point group:


     Electric field:
     Dielectric constant
     Born effective charges in two ways 


     Atomic displacements:
     There are   2 irreducible representations

     Representation     1      3 modes -T_2g G_25' G_5+  To be done

     Representation     2      3 modes -T_1u G_15  G_4-  To be done



     Alpha used in Ewald sum =   0.7000
     PHONON       :      0.24s CPU      0.50s WALL


     Electric Fields Calculation

      iter #   1 total cpu time :     1.2 secs   av.it.:   5.5
      thresh= 1.000E-02 alpha_mix =  0.700 |ddv_scf|^2 =  6.122E-07

      iter #   2 total cpu time :     1.6 secs   av.it.:   9.3
      thresh= 7.824E-05 alpha_mix =  0.700 |ddv_scf|^2 =  2.298E-08

      iter #   3 total cpu time :     1.9 secs   av.it.:   9.2
      thresh= 1.516E-05 alpha_mix =  0.700 |ddv_scf|^2 =  2.420E-10

      iter #   4 total cpu time :     2.3 secs   av.it.:   9.6
      thresh= 1.556E-06 alpha_mix =  0.700 |ddv_scf|^2 =  1.024E-12

      iter #   5 total cpu time :     2.6 secs   av.it.:   9.1
      thresh= 1.012E-07 alpha_mix =  0.700 |ddv_scf|^2 =  1.344E-15

     End of electric fields calculation

          Dielectric constant in cartesian axis 

          (      13.733910760      -0.000000000       0.000000000 )
          (      -0.000000000      13.733910760       0.000000000 )
          (       0.000000000       0.000000000      13.733910760 )

          Effective charges (d Force / dE) in cartesian axis

           atom      1   Si 
      Ex  (       -0.07414        0.00000       -0.00000 )
      Ey  (        0.00000       -0.07414       -0.00000 )
      Ez  (       -0.00000       -0.00000       -0.07414 )
           atom      2   Si 
      Ex  (       -0.07414        0.00000       -0.00000 )
      Ey  (        0.00000       -0.07414        0.00000 )
      Ez  (       -0.00000        0.00000       -0.07414 )


     Representation #  1 modes #   1  2  3

     Self-consistent Calculation

      iter #   1 total cpu time :     2.9 secs   av.it.:   4.9
      thresh= 1.000E-02 alpha_mix =  0.700 |ddv_scf|^2 =  1.308E-07

      iter #   2 total cpu time :     3.3 secs   av.it.:   9.7
      thresh= 3.617E-05 alpha_mix =  0.700 |ddv_scf|^2 =  2.202E-09

      iter #   3 total cpu time :     3.7 secs   av.it.:   9.6
      thresh= 4.692E-06 alpha_mix =  0.700 |ddv_scf|^2 =  1.931E-11

      iter #   4 total cpu time :     4.1 secs   av.it.:   9.1
      thresh= 4.395E-07 alpha_mix =  0.700 |ddv_scf|^2 =  2.310E-14

      iter #   5 total cpu time :     4.4 secs   av.it.:   9.6
      thresh= 1.520E-08 alpha_mix =  0.700 |ddv_scf|^2 =  2.441E-16

     End of self-consistent calculation

     Convergence has been achieved 


     Representation #  2 modes #   4  5  6

     Self-consistent Calculation

      iter #   1 total cpu time :     4.7 secs   av.it.:   5.0
      thresh= 1.000E-02 alpha_mix =  0.700 |ddv_scf|^2 =  9.202E-08

      iter #   2 total cpu time :     5.1 secs   av.it.:   9.7
      thresh= 3.033E-05 alpha_mix =  0.700 |ddv_scf|^2 =  3.236E-09

      iter #   3 total cpu time :     5.5 secs   av.it.:   9.6
      thresh= 5.689E-06 alpha_mix =  0.700 |ddv_scf|^2 =  2.696E-11

      iter #   4 total cpu time :     5.9 secs   av.it.:   9.5
      thresh= 5.192E-07 alpha_mix =  0.700 |ddv_scf|^2 =  6.432E-14

      iter #   5 total cpu time :     6.3 secs   av.it.:   9.9
      thresh= 2.536E-08 alpha_mix =  0.700 |ddv_scf|^2 =  9.514E-16

     End of self-consistent calculation

     Convergence has been achieved 
 
     Number of q in the star =    1
     List of q in the star:
          1   0.000000000   0.000000000   0.000000000

          Dielectric constant in cartesian axis 

          (      13.733910760      -0.000000000       0.000000000 )
          (      -0.000000000      13.733910760       0.000000000 )
          (       0.000000000       0.000000000      13.733910760 )

          Effective charges (d Force / dE) in cartesian axis

           atom      1   Si 
      Ex  (       -0.07414        0.00000       -0.00000 )
      Ey  (        0.00000       -0.07414       -0.00000 )
      Ez  (       -0.00000       -0.00000       -0.07414 )
           atom      2   Si 
      Ex  (       -0.07414        0.00000       -0.00000 )
      Ey  (        0.00000       -0.07414        0.00000 )
      Ez  (       -0.00000        0.00000       -0.07414 )

          Effective charges (d P / du) in cartesian axis 

           atom      1   Si 
      Px  (       -0.07417       -0.00000       -0.00000 )
      Py  (       -0.00000       -0.07417        0.00000 )
      Pz  (       -0.00000        0.00000       -0.07417 )
           atom      2   Si 
      Px  (       -0.07417        0.00000        0.00000 )
      Py  (        0.00000       -0.07417        0.00000 )
      Pz  (        0.00000        0.00000       -0.07417 )

     Diagonalizing the dynamical matrix

     q = (    0.000000000   0.000000000   0.000000000 ) 

 **************************************************************************
     freq (    1) =       0.069949 [THz] =       2.333248 [cm-1]
     freq (    2) =       0.069949 [THz] =       2.333248 [cm-1]
     freq (    3) =       0.069949 [THz] =       2.333248 [cm-1]
     freq (    4) =      15.474501 [THz] =     516.173789 [cm-1]
     freq (    5) =      15.474501 [THz] =     516.173789 [cm-1]
     freq (    6) =      15.474501 [THz] =     516.173789 [cm-1]
 **************************************************************************

     Mode symmetry, O_h (m-3m)  point group:

     freq (  1 -  3) =          2.3  [cm-1]   --> T_1u G_15  G_4- I  
     freq (  4 -  6) =        516.2  [cm-1]   --> T_2g G_25' G_5+ R  

     Calculation of q =   -0.2500000   0.2500000  -0.2500000

     Subspace diagonalization in iterative solution of the eigenvalue problem:
     a serial algorithm will be used

 
     Parallelization info
     --------------------
     sticks:   dense  smooth     PW     G-vecs:    dense   smooth      PW
     Min          29      29     10                  284      284      65
     Max          30      30     11                  285      285      68
     Sum         235     235     85                 2277     2277     531
 

     Title: 
     Phonons on a uniform q-grid                                                


     bravais-lattice index     =            2
     lattice parameter (alat)  =      10.2000  a.u.
     unit-cell volume          =     265.3020 (a.u.)^3
     number of atoms/cell      =            2
     number of atomic types    =            1
     number of electrons       =         8.00
     number of Kohn-Sham states=            4
     kinetic-energy cutoff     =      16.0000  Ry
     charge density cutoff     =      64.0000  Ry
     Exchange-correlation      = PZ ( 1  1  0  0 0 0)

     celldm(1)=  10.200000  celldm(2)=   0.000000  celldm(3)=   0.000000
     celldm(4)=   0.000000  celldm(5)=   0.000000  celldm(6)=   0.000000

     crystal axes: (cart. coord. in units of alat)
               a(1) = (  -0.500000   0.000000   0.500000 )  
               a(2) = (   0.000000   0.500000   0.500000 )  
               a(3) = (  -0.500000   0.500000   0.000000 )  

     reciprocal axes: (cart. coord. in units 2 pi/alat)
               b(1) = ( -1.000000 -1.000000  1.000000 )  
               b(2) = (  1.000000  1.000000  1.000000 )  
               b(3) = ( -1.000000  1.000000 -1.000000 )  


     PseudoPot. # 1 for Si read from file:
     ./Si.vbc.UPF
     MD5 check sum: bcd8ae23180a2f07cc8655fe7dcd9644
     Pseudo is Norm-conserving, Zval =  4.0
     Generated by new atomic code, or converted to UPF format
     Using radial grid of  431 points,  2 beta functions with: 
                l(1) =   0
                l(2) =   1

     atomic species   valence    mass     pseudopotential
        Si             4.00    28.08550     Si( 1.00)

     48 Sym. Ops., with inversion, found



   Cartesian axes

     site n.     atom                  positions (alat units)
         1           Si  tau(   1) = (   0.0000000   0.0000000   0.0000000  )
         2           Si  tau(   2) = (   0.2500000   0.2500000   0.2500000  )

     number of k points=   120

     Number of k-points >= 100: set verbosity='high' to print them.

     Dense  grid:     2277 G-vectors     FFT dimensions: (  20,  20,  20)

     Estimated max dynamical RAM per process >       0.25 MB

     Estimated total dynamical RAM >       1.97 MB

     The potential is recalculated from file :
     ./out/_ph0/Si.save/charge-density

     Starting wfcs are    8 atomic wfcs

     Band Structure Calculation
     Davidson diagonalization with overlap

     ethr =  1.25E-10,  avg # of iterations = 11.4

     total cpu time spent up to now is        1.3 secs

     End of band structure calculation

     Number of k-points >= 100: set verbosity='high' to print the bands.

     highest occupied level (ev):     5.9601

     Writing output data file Si.save/

     Phonons on a uniform q-grid                                                

     bravais-lattice index     =            2
     lattice parameter (alat)  =      10.2000  a.u.
     unit-cell volume          =     265.3020 (a.u.)^3
     number of atoms/cell      =            2
     number of atomic types    =            1
     kinetic-energy cut-off    =      16.0000  Ry
     charge density cut-off    =      64.0000  Ry
     convergence threshold     =      1.0E-14
     beta                      =       0.7000
     number of iterations used =            4
     Exchange-correlation      = PZ ( 1  1  0  0 0 0)


     celldm(1)=   10.20000  celldm(2)=    0.00000  celldm(3)=    0.00000
     celldm(4)=    0.00000  celldm(5)=    0.00000  celldm(6)=    0.00000

     crystal axes: (cart. coord. in units of alat)
               a(1) = ( -0.5000  0.0000  0.5000 )  
               a(2) = (  0.0000  0.5000  0.5000 )  
               a(3) = ( -0.5000  0.5000  0.0000 )  

     reciprocal axes: (cart. coord. in units 2 pi/alat)
               b(1) = ( -1.0000 -1.0000  1.0000 )  
               b(2) = (  1.0000  1.0000  1.0000 )  
               b(3) = ( -1.0000  1.0000 -1.0000 )  


     Atoms inside the unit cell: 

     Cartesian axes

     site n.  atom      mass           positions (alat units)
        1     Si  28.0855   tau(    1) = (    0.00000    0.00000    0.00000  )
        2     Si  28.0855   tau(    2) = (    0.25000    0.25000    0.25000  )

     Computing dynamical matrix for 
                    q = (  -0.2500000   0.2500000  -0.2500000 )
 
      6 Sym.Ops. (no q -> -q+G )


     G cutoff =  168.6633  (    285 G-vectors)     FFT grid: ( 20, 20, 20)
     number of k points=   120

     PseudoPot. # 1 for Si read from file:
     ./Si.vbc.UPF
     MD5 check sum: bcd8ae23180a2f07cc8655fe7dcd9644
     Pseudo is Norm-conserving, Zval =  4.0
     Generated by new atomic code, or converted to UPF format
     Using radial grid of  431 points,  2 beta functions with: 
                l(1) =   0
                l(2) =   1

     Mode symmetry, C_3v (3m)   point group:


     Atomic displacements:
     There are   4 irreducible representations

     Representation     1      1 modes -A_1  L_1  To be done

     Representation     2      1 modes -A_1  L_1  To be done

     Representation     3      2 modes -E    L_3  To be done

     Representation     4      2 modes -E    L_3  To be done



     Alpha used in Ewald sum =   0.7000
     PHONON       :      5.66s CPU      7.82s WALL



     Representation #  1 mode #   1

     Self-consistent Calculation

      iter #   1 total cpu time :     8.2 secs   av.it.:   5.5
      thresh= 1.000E-02 alpha_mix =  0.700 |ddv_scf|^2 =  1.826E-03

      iter #   2 total cpu time :     8.6 secs   av.it.:   7.2
      thresh= 4.273E-03 alpha_mix =  0.700 |ddv_scf|^2 =  2.792E-02

      iter #   3 total cpu time :     9.1 secs   av.it.:   6.1
      thresh= 1.000E-02 alpha_mix =  0.700 |ddv_scf|^2 =  1.145E-06

      iter #   4 total cpu time :     9.5 secs   av.it.:   7.8
      thresh= 1.070E-04 alpha_mix =  0.700 |ddv_scf|^2 =  1.084E-07

      iter #   5 total cpu time :    10.0 secs   av.it.:   7.4
      thresh= 3.293E-05 alpha_mix =  0.700 |ddv_scf|^2 =  2.876E-10

      iter #   6 total cpu time :    10.4 secs   av.it.:   7.6
      thresh= 1.696E-06 alpha_mix =  0.700 |ddv_scf|^2 =  2.865E-10

      iter #   7 total cpu time :    10.9 secs   av.it.:   6.3
      thresh= 1.693E-06 alpha_mix =  0.700 |ddv_scf|^2 =  5.732E-11

      iter #   8 total cpu time :    11.3 secs   av.it.:   7.0
      thresh= 7.571E-07 alpha_mix =  0.700 |ddv_scf|^2 =  4.013E-13

      iter #   9 total cpu time :    11.8 secs   av.it.:   7.2
      thresh= 6.335E-08 alpha_mix =  0.700 |ddv_scf|^2 =  2.109E-14

      iter #  10 total cpu time :    12.2 secs   av.it.:   7.4
      thresh= 1.452E-08 alpha_mix =  0.700 |ddv_scf|^2 =  6.873E-16

     End of self-consistent calculation

     Convergence has been achieved 


     Representation #  2 mode #   2

     Self-consistent Calculation

      iter #   1 total cpu time :    12.7 secs   av.it.:   5.5
      thresh= 1.000E-02 alpha_mix =  0.700 |ddv_scf|^2 =  1.826E-03

      iter #   2 total cpu time :    13.1 secs   av.it.:   7.2
      thresh= 4.273E-03 alpha_mix =  0.700 |ddv_scf|^2 =  2.792E-02

      iter #   3 total cpu time :    13.6 secs   av.it.:   6.1
      thresh= 1.000E-02 alpha_mix =  0.700 |ddv_scf|^2 =  1.145E-06

      iter #   4 total cpu time :    14.0 secs   av.it.:   7.8
      thresh= 1.070E-04 alpha_mix =  0.700 |ddv_scf|^2 =  1.084E-07

      iter #   5 total cpu time :    14.5 secs   av.it.:   7.4
      thresh= 3.293E-05 alpha_mix =  0.700 |ddv_scf|^2 =  2.876E-10

      iter #   6 total cpu time :    14.9 secs   av.it.:   7.6
      thresh= 1.696E-06 alpha_mix =  0.700 |ddv_scf|^2 =  2.865E-10

      iter #   7 total cpu time :    15.4 secs   av.it.:   6.3
      thresh= 1.693E-06 alpha_mix =  0.700 |ddv_scf|^2 =  5.732E-11

      iter #   8 total cpu time :    15.8 secs   av.it.:   7.0
      thresh= 7.571E-07 alpha_mix =  0.700 |ddv_scf|^2 =  4.013E-13

      iter #   9 total cpu time :    16.3 secs   av.it.:   7.2
      thresh= 6.335E-08 alpha_mix =  0.700 |ddv_scf|^2 =  2.109E-14

      iter #  10 total cpu time :    16.8 secs   av.it.:   7.4
      thresh= 1.452E-08 alpha_mix =  0.700 |ddv_scf|^2 =  6.873E-16

     End of self-consistent calculation

     Convergence has been achieved 


     Representation #  3 modes #   3  4

     Self-consistent Calculation

      iter #   1 total cpu time :    17.5 secs   av.it.:   5.0
      thresh= 1.000E-02 alpha_mix =  0.700 |ddv_scf|^2 =  3.517E-07

      iter #   2 total cpu time :    18.6 secs   av.it.:   9.4
      thresh= 5.930E-05 alpha_mix =  0.700 |ddv_scf|^2 =  1.881E-08

      iter #   3 total cpu time :    19.6 secs   av.it.:   9.2
      thresh= 1.371E-05 alpha_mix =  0.700 |ddv_scf|^2 =  7.814E-11

      iter #   4 total cpu time :    20.6 secs   av.it.:   9.1
      thresh= 8.840E-07 alpha_mix =  0.700 |ddv_scf|^2 =  5.149E-12

      iter #   5 total cpu time :    21.6 secs   av.it.:   8.9
      thresh= 2.269E-07 alpha_mix =  0.700 |ddv_scf|^2 =  1.052E-14

      iter #   6 total cpu time :    22.7 secs   av.it.:   9.4
      thresh= 1.026E-08 alpha_mix =  0.700 |ddv_scf|^2 =  1.634E-16

     End of self-consistent calculation

     Convergence has been achieved 


     Representation #  4 modes #   5  6

     Self-consistent Calculation

      iter #   1 total cpu time :    23.4 secs   av.it.:   5.1
      thresh= 1.000E-02 alpha_mix =  0.700 |ddv_scf|^2 =  3.518E-07

      iter #   2 total cpu time :    24.5 secs   av.it.:   9.4
      thresh= 5.931E-05 alpha_mix =  0.700 |ddv_scf|^2 =  1.884E-08

      iter #   3 total cpu time :    25.5 secs   av.it.:   9.2
      thresh= 1.373E-05 alpha_mix =  0.700 |ddv_scf|^2 =  7.809E-11

      iter #   4 total cpu time :    26.5 secs   av.it.:   9.1
      thresh= 8.837E-07 alpha_mix =  0.700 |ddv_scf|^2 =  5.155E-12

      iter #   5 total cpu time :    27.5 secs   av.it.:   8.9
      thresh= 2.271E-07 alpha_mix =  0.700 |ddv_scf|^2 =  1.039E-14

      iter #   6 total cpu time :    28.6 secs   av.it.:   9.4
      thresh= 1.019E-08 alpha_mix =  0.700 |ddv_scf|^2 =  1.635E-16

     End of self-consistent calculation

     Convergence has been achieved 
 
     Number of q in the star =    8
     List of q in the star:
          1  -0.250000000   0.250000000  -0.250000000
          2   0.250000000  -0.250000000  -0.250000000
          3   0.250000000  -0.250000000   0.250000000
          4   0.250000000   0.250000000   0.250000000
          5  -0.250000000  -0.250000000  -0.250000000
          6  -0.250000000  -0.250000000   0.250000000
          7  -0.250000000   0.250000000   0.250000000
          8   0.250000000   0.250000000  -0.250000000

     Diagonalizing the dynamical matrix

     q = (   -0.250000000   0.250000000  -0.250000000 ) 

 **************************************************************************
     freq (    1) =       2.848645 [THz] =      95.020570 [cm-1]
     freq (    2) =       2.848645 [THz] =      95.020570 [cm-1]
     freq (    3) =       6.998145 [THz] =     233.433004 [cm-1]
     freq (    4) =      14.634852 [THz] =     488.166107 [cm-1]
     freq (    5) =      14.952162 [THz] =     498.750432 [cm-1]
     freq (    6) =      14.952162 [THz] =     498.750432 [cm-1]
 **************************************************************************

     Mode symmetry, C_3v (3m)   point group:

     freq (  1 -  2) =         95.0  [cm-1]   --> E    L_3           
     freq (  3 -  3) =        233.4  [cm-1]   --> A_1  L_1           
     freq (  4 -  4) =        488.2  [cm-1]   --> A_1  L_1           
     freq (  5 -  6) =        498.8  [cm-1]   --> E    L_3           

     Calculation of q =    0.5000000  -0.5000000   0.5000000
 
     Parallelization info
     --------------------
     sticks:   dense  smooth     PW     G-vecs:    dense   smooth      PW
     Min          29      29     11                  284      284      70
     Max          30      30     12                  285      285      71
     Sum         235     235     91                 2277     2277     561
 

     Title: 
     Phonons on a uniform q-grid                                                


     bravais-lattice index     =            2
     lattice parameter (alat)  =      10.2000  a.u.
     unit-cell volume          =     265.3020 (a.u.)^3
     number of atoms/cell      =            2
     number of atomic types    =            1
     number of electrons       =         8.00
     number of Kohn-Sham states=            4
     kinetic-energy cutoff     =      16.0000  Ry
     charge density cutoff     =      64.0000  Ry
     Exchange-correlation      = PZ ( 1  1  0  0 0 0)

     celldm(1)=  10.200000  celldm(2)=   0.000000  celldm(3)=   0.000000
     celldm(4)=   0.000000  celldm(5)=   0.000000  celldm(6)=   0.000000

     crystal axes: (cart. coord. in units of alat)
               a(1) = (  -0.500000   0.000000   0.500000 )  
               a(2) = (   0.000000   0.500000   0.500000 )  
               a(3) = (  -0.500000   0.500000   0.000000 )  

     reciprocal axes: (cart. coord. in units 2 pi/alat)
               b(1) = ( -1.000000 -1.000000  1.000000 )  
               b(2) = (  1.000000  1.000000  1.000000 )  
               b(3) = ( -1.000000  1.000000 -1.000000 )  


     PseudoPot. # 1 for Si read from file:
     ./Si.vbc.UPF
     MD5 check sum: bcd8ae23180a2f07cc8655fe7dcd9644
     Pseudo is Norm-conserving, Zval =  4.0
     Generated by new atomic code, or converted to UPF format
     Using radial grid of  431 points,  2 beta functions with: 
                l(1) =   0
                l(2) =   1

     atomic species   valence    mass     pseudopotential
        Si             4.00    28.08550     Si( 1.00)

     48 Sym. Ops., with inversion, found



   Cartesian axes

     site n.     atom                  positions (alat units)
         1           Si  tau(   1) = (   0.0000000   0.0000000   0.0000000  )
         2           Si  tau(   2) = (   0.2500000   0.2500000   0.2500000  )

     number of k points=    60
                       cart. coord. in units 2pi/alat
        k(    1) = (   0.1250000   0.1250000   0.1250000), wk =   0.0468750
        k(    2) = (   0.6250000  -0.3750000   0.6250000), wk =   0.0000000
        k(    3) = (   0.1250000   0.1250000   0.3750000), wk =   0.0937500
        k(    4) = (   0.6250000  -0.3750000   0.8750000), wk =   0.0000000
        k(    5) = (   0.1250000   0.1250000   0.6250000), wk =   0.0937500
        k(    6) = (   0.6250000  -0.3750000   1.1250000), wk =   0.0000000
        k(    7) = (   0.1250000   0.1250000   0.8750000), wk =   0.0937500
        k(    8) = (   0.6250000  -0.3750000   1.3750000), wk =   0.0000000
        k(    9) = (   0.1250000   0.3750000   0.3750000), wk =   0.0937500
        k(   10) = (   0.6250000  -0.1250000   0.8750000), wk =   0.0000000
        k(   11) = (   0.1250000   0.3750000   0.6250000), wk =   0.0937500
        k(   12) = (   0.6250000  -0.1250000   1.1250000), wk =   0.0000000
        k(   13) = (   0.1250000   0.3750000   0.8750000), wk =   0.0937500
        k(   14) = (   0.6250000  -0.1250000   1.3750000), wk =   0.0000000
        k(   15) = (   0.1250000   0.6250000   0.6250000), wk =   0.0937500
        k(   16) = (   0.6250000   0.1250000   1.1250000), wk =   0.0000000
        k(   17) = (   0.3750000   0.3750000   0.3750000), wk =   0.0468750
        k(   18) = (   0.8750000  -0.1250000   0.8750000), wk =   0.0000000
        k(   19) = (   0.3750000   0.3750000   0.6250000), wk =   0.0937500
        k(   20) = (   0.8750000  -0.1250000   1.1250000), wk =   0.0000000
        k(   21) = (   0.1250000  -0.1250000   0.1250000), wk =   0.0156250
        k(   22) = (   0.6250000  -0.6250000   0.6250000), wk =   0.0000000
        k(   23) = (   0.1250000  -0.1250000   0.3750000), wk =   0.0468750
        k(   24) = (   0.6250000  -0.6250000   0.8750000), wk =   0.0000000
        k(   25) = (  -0.3750000  -0.1250000   0.1250000), wk =   0.0468750
        k(   26) = (   0.1250000  -0.6250000   0.6250000), wk =   0.0000000
        k(   27) = (   0.1250000  -0.1250000   0.6250000), wk =   0.0468750
        k(   28) = (   0.6250000  -0.6250000   1.1250000), wk =   0.0000000
        k(   29) = (  -0.6250000  -0.1250000   0.1250000), wk =   0.0468750
        k(   30) = (  -0.1250000  -0.6250000   0.6250000), wk =   0.0000000
        k(   31) = (   0.1250000  -0.1250000   0.8750000), wk =   0.0468750
        k(   32) = (   0.6250000  -0.6250000   1.3750000), wk =   0.0000000
        k(   33) = (  -0.8750000  -0.1250000   0.1250000), wk =   0.0468750
        k(   34) = (  -0.3750000  -0.6250000   0.6250000), wk =   0.0000000
        k(   35) = (   0.1250000  -0.3750000   0.3750000), wk =   0.0468750
        k(   36) = (   0.6250000  -0.8750000   0.8750000), wk =   0.0000000
        k(   37) = (   0.3750000  -0.3750000  -0.1250000), wk =   0.0468750
        k(   38) = (   0.8750000  -0.8750000   0.3750000), wk =   0.0000000
        k(   39) = (   0.1250000  -0.3750000   0.6250000), wk =   0.0937500
        k(   40) = (   0.6250000  -0.8750000   1.1250000), wk =   0.0000000
        k(   41) = (  -0.6250000  -0.3750000   0.1250000), wk =   0.0937500
        k(   42) = (  -0.1250000  -0.8750000   0.6250000), wk =   0.0000000
        k(   43) = (   0.6250000  -0.3750000  -0.1250000), wk =   0.0937500
        k(   44) = (   1.1250000  -0.8750000   0.3750000), wk =   0.0000000
        k(   45) = (   0.1250000  -0.3750000   0.8750000), wk =   0.0937500
        k(   46) = (   0.6250000  -0.8750000   1.3750000), wk =   0.0000000
        k(   47) = (  -0.8750000  -0.3750000   0.1250000), wk =   0.0937500
        k(   48) = (  -0.3750000  -0.8750000   0.6250000), wk =   0.0000000
        k(   49) = (   0.8750000  -0.3750000  -0.1250000), wk =   0.0937500
        k(   50) = (   1.3750000  -0.8750000   0.3750000), wk =   0.0000000
        k(   51) = (   0.1250000  -0.6250000   0.6250000), wk =   0.0468750
        k(   52) = (   0.6250000  -1.1250000   1.1250000), wk =   0.0000000
        k(   53) = (   0.6250000  -0.6250000  -0.1250000), wk =   0.0468750
        k(   54) = (   1.1250000  -1.1250000   0.3750000), wk =   0.0000000
        k(   55) = (   0.3750000  -0.3750000   0.3750000), wk =   0.0156250
        k(   56) = (   0.8750000  -0.8750000   0.8750000), wk =   0.0000000
        k(   57) = (   0.3750000  -0.3750000   0.6250000), wk =   0.0468750
        k(   58) = (   0.8750000  -0.8750000   1.1250000), wk =   0.0000000
        k(   59) = (  -0.6250000  -0.3750000   0.3750000), wk =   0.0468750
        k(   60) = (  -0.1250000  -0.8750000   0.8750000), wk =   0.0000000

     Dense  grid:     2277 G-vectors     FFT dimensions: (  20,  20,  20)

     Estimated max dynamical RAM per process >       0.25 MB

     Estimated total dynamical RAM >       1.99 MB

     The potential is recalculated from file :
     ./out/_ph0/Si.save/charge-density

     Starting wfcs are    8 atomic wfcs

     Band Structure Calculation
     Davidson diagonalization with overlap

     ethr =  1.25E-10,  avg # of iterations = 11.4

     total cpu time spent up to now is        2.0 secs

     End of band structure calculation

          k = 0.1250 0.1250 0.1250 (   295 PWs)   bands (ev):

    -5.5991   4.6524   5.9601   5.9601

          k = 0.6250-0.3750 0.6250 (   281 PWs)   bands (ev):

    -3.3195  -0.5726   3.9395   4.6600

          k = 0.1250 0.1250 0.3750 (   293 PWs)   bands (ev):

    -5.0461   3.0247   4.9038   4.9946

          k = 0.6250-0.3750 0.8750 (   288 PWs)   bands (ev):

    -3.5383   0.3849   2.8610   4.2772

          k = 0.1250 0.1250 0.6250 (   289 PWs)   bands (ev):

    -3.9779   1.3239   3.5204   3.9946

          k = 0.6250-0.3750 1.1250 (   288 PWs)   bands (ev):

    -3.5383   0.3849   2.8610   4.2772

          k = 0.1250 0.1250 0.8750 (   286 PWs)   bands (ev):

    -2.4499  -0.5803   2.7288   3.5105

          k = 0.6250-0.3750 1.3750 (   281 PWs)   bands (ev):

    -3.3195  -0.5726   3.9395   4.6600

          k = 0.1250 0.3750 0.3750 (   292 PWs)   bands (ev):

    -4.5266   1.6005   3.8940   5.4660

          k = 0.6250-0.1250 0.8750 (   283 PWs)   bands (ev):

    -2.2583  -0.6913   2.0848   3.2152

          k = 0.1250 0.3750 0.6250 (   288 PWs)   bands (ev):

    -3.5383   0.3849   2.8610   4.2772

          k = 0.6250-0.1250 1.1250 (   283 PWs)   bands (ev):

    -2.2583  -0.6913   2.0848   3.2152

          k = 0.1250 0.3750 0.8750 (   283 PWs)   bands (ev):

    -2.2583  -0.6913   2.0848   3.2152

          k = 0.6250-0.1250 1.3750 (   286 PWs)   bands (ev):

    -2.8126  -0.4288   2.1661   4.3260

          k = 0.1250 0.6250 0.6250 (   286 PWs)   bands (ev):

    -2.8126  -0.4288   2.1661   4.3260

          k = 0.6250 0.1250 1.1250 (   283 PWs)   bands (ev):

    -2.2583  -0.6913   2.0848   3.2152

          k = 0.3750 0.3750 0.3750 (   281 PWs)   bands (ev):

    -4.0665   0.2415   5.1458   5.1458

          k = 0.8750-0.1250 0.8750 (   286 PWs)   bands (ev):

    -2.4499  -0.5803   2.7288   3.5105

          k = 0.3750 0.3750 0.6250 (   281 PWs)   bands (ev):

    -3.3195  -0.5726   3.9395   4.6600

          k = 0.8750-0.1250 1.1250 (   286 PWs)   bands (ev):

    -2.4499  -0.5803   2.7288   3.5105

          k = 0.1250-0.1250 0.1250 (   295 PWs)   bands (ev):

    -5.5991   4.6524   5.9601   5.9601

          k = 0.6250-0.6250 0.6250 (   281 PWs)   bands (ev):

    -4.0665   0.2415   5.1458   5.1458

          k = 0.1250-0.1250 0.3750 (   293 PWs)   bands (ev):

    -5.0461   3.0247   4.9038   4.9946

          k = 0.6250-0.6250 0.8750 (   292 PWs)   bands (ev):

    -4.5266   1.6005   3.8940   5.4660

          k =-0.3750-0.1250 0.1250 (   293 PWs)   bands (ev):

    -5.0461   3.0247   4.9038   4.9946

          k = 0.1250-0.6250 0.6250 (   286 PWs)   bands (ev):

    -2.8126  -0.4288   2.1661   4.3260

          k = 0.1250-0.1250 0.6250 (   289 PWs)   bands (ev):

    -3.9779   1.3239   3.5204   3.9946

          k = 0.6250-0.6250 1.1250 (   292 PWs)   bands (ev):

    -4.5266   1.6005   3.8940   5.4660

          k =-0.6250-0.1250 0.1250 (   289 PWs)   bands (ev):

    -3.9779   1.3239   3.5204   3.9946

          k =-0.1250-0.6250 0.6250 (   286 PWs)   bands (ev):

    -2.8126  -0.4288   2.1661   4.3260

          k = 0.1250-0.1250 0.8750 (   286 PWs)   bands (ev):

    -2.4499  -0.5803   2.7288   3.5105

          k = 0.6250-0.6250 1.3750 (   281 PWs)   bands (ev):

    -4.0665   0.2415   5.1458   5.1458

          k =-0.8750-0.1250 0.1250 (   286 PWs)   bands (ev):

    -2.4499  -0.5803   2.7288   3.5105

          k =-0.3750-0.6250 0.6250 (   281 PWs)   bands (ev):

    -3.3195  -0.5726   3.9395   4.6600

          k = 0.1250-0.3750 0.3750 (   292 PWs)   bands (ev):

    -4.5266   1.6005   3.8940   5.4660

          k = 0.6250-0.8750 0.8750 (   293 PWs)   bands (ev):

    -5.0461   3.0247   4.9038   4.9946

          k = 0.3750-0.3750-0.1250 (   292 PWs)   bands (ev):

    -4.5266   1.6005   3.8940   5.4660

          k = 0.8750-0.8750 0.3750 (   289 PWs)   bands (ev):

    -3.9779   1.3239   3.5204   3.9946

          k = 0.1250-0.3750 0.6250 (   288 PWs)   bands (ev):

    -3.5383   0.3849   2.8610   4.2772

          k = 0.6250-0.8750 1.1250 (   293 PWs)   bands (ev):

    -5.0461   3.0247   4.9038   4.9946

          k =-0.6250-0.3750 0.1250 (   288 PWs)   bands (ev):

    -3.5383   0.3849   2.8610   4.2772

          k =-0.1250-0.8750 0.6250 (   283 PWs)   bands (ev):

    -2.2583  -0.6913   2.0848   3.2152

          k = 0.6250-0.3750-0.1250 (   288 PWs)   bands (ev):

    -3.5383   0.3849   2.8610   4.2772

          k = 1.1250-0.8750 0.3750 (   289 PWs)   bands (ev):

    -3.9779   1.3239   3.5204   3.9946

          k = 0.1250-0.3750 0.8750 (   283 PWs)   bands (ev):

    -2.2583  -0.6913   2.0848   3.2152

          k = 0.6250-0.8750 1.3750 (   292 PWs)   bands (ev):

    -4.5266   1.6005   3.8940   5.4660

          k =-0.8750-0.3750 0.1250 (   283 PWs)   bands (ev):

    -2.2583  -0.6913   2.0848   3.2152

          k =-0.3750-0.8750 0.6250 (   288 PWs)   bands (ev):

    -3.5383   0.3849   2.8610   4.2772

          k = 0.8750-0.3750-0.1250 (   283 PWs)   bands (ev):

    -2.2583  -0.6913   2.0848   3.2152

          k = 1.3750-0.8750 0.3750 (   288 PWs)   bands (ev):

    -3.5383   0.3849   2.8610   4.2772

          k = 0.1250-0.6250 0.6250 (   286 PWs)   bands (ev):

    -2.8126  -0.4288   2.1661   4.3260

          k = 0.6250-1.1250 1.1250 (   293 PWs)   bands (ev):

    -5.0461   3.0247   4.9038   4.9946

          k = 0.6250-0.6250-0.1250 (   286 PWs)   bands (ev):

    -2.8126  -0.4288   2.1661   4.3260

          k = 1.1250-1.1250 0.3750 (   289 PWs)   bands (ev):

    -3.9779   1.3239   3.5204   3.9946

          k = 0.3750-0.3750 0.3750 (   281 PWs)   bands (ev):

    -4.0665   0.2415   5.1458   5.1458

          k = 0.8750-0.8750 0.8750 (   295 PWs)   bands (ev):

    -5.5991   4.6524   5.9601   5.9601

          k = 0.3750-0.3750 0.6250 (   281 PWs)   bands (ev):

    -3.3195  -0.5726   3.9395   4.6600

          k = 0.8750-0.8750 1.1250 (   295 PWs)   bands (ev):

    -5.5991   4.6524   5.9601   5.9601

          k =-0.6250-0.3750 0.3750 (   281 PWs)   bands (ev):

    -3.3195  -0.5726   3.9395   4.6600

          k =-0.1250-0.8750 0.8750 (   286 PWs)   bands (ev):

    -2.4499  -0.5803   2.7288   3.5105

     highest occupied level (ev):     5.9601

     Writing output data file Si.save/

     Phonons on a uniform q-grid                                                

     bravais-lattice index     =            2
     lattice parameter (alat)  =      10.2000  a.u.
     unit-cell volume          =     265.3020 (a.u.)^3
     number of atoms/cell      =            2
     number of atomic types    =            1
     kinetic-energy cut-off    =      16.0000  Ry
     charge density cut-off    =      64.0000  Ry
     convergence threshold     =      1.0E-14
     beta                      =       0.7000
     number of iterations used =            4
     Exchange-correlation      = PZ ( 1  1  0  0 0 0)


     celldm(1)=   10.20000  celldm(2)=    0.00000  celldm(3)=    0.00000
     celldm(4)=    0.00000  celldm(5)=    0.00000  celldm(6)=    0.00000

     crystal axes: (cart. coord. in units of alat)
               a(1) = ( -0.5000  0.0000  0.5000 )  
               a(2) = (  0.0000  0.5000  0.5000 )  
               a(3) = ( -0.5000  0.5000  0.0000 )  

     reciprocal axes: (cart. coord. in units 2 pi/alat)
               b(1) = ( -1.0000 -1.0000  1.0000 )  
               b(2) = (  1.0000  1.0000  1.0000 )  
               b(3) = ( -1.0000  1.0000 -1.0000 )  


     Atoms inside the unit cell: 

     Cartesian axes

     site n.  atom      mass           positions (alat units)
        1     Si  28.0855   tau(    1) = (    0.00000    0.00000    0.00000  )
        2     Si  28.0855   tau(    2) = (    0.25000    0.25000    0.25000  )

     Computing dynamical matrix for 
                    q = (   0.5000000  -0.5000000   0.5000000 )
 
     13 Sym.Ops. (with q -> -q+G )


     G cutoff =  168.6633  (    285 G-vectors)     FFT grid: ( 20, 20, 20)
     number of k points=    60

     PseudoPot. # 1 for Si read from file:
     ./Si.vbc.UPF
     MD5 check sum: bcd8ae23180a2f07cc8655fe7dcd9644
     Pseudo is Norm-conserving, Zval =  4.0
     Generated by new atomic code, or converted to UPF format
     Using radial grid of  431 points,  2 beta functions with: 
                l(1) =   0
                l(2) =   1


     Atomic displacements:
     There are   4 irreducible representations

     Representation     1      1 modes -  To be done

     Representation     2      1 modes -  To be done

     Representation     3      2 modes -  To be done

     Representation     4      2 modes -  To be done



     Alpha used in Ewald sum =   0.7000
     PHONON       :     22.31s CPU     29.55s WALL



     Representation #  1 mode #   1

     Self-consistent Calculation

      iter #   1 total cpu time :    29.7 secs   av.it.:   5.0
      thresh= 1.000E-02 alpha_mix =  0.700 |ddv_scf|^2 =  1.645E-05

      iter #   2 total cpu time :    30.0 secs   av.it.:   7.9
      thresh= 4.056E-04 alpha_mix =  0.700 |ddv_scf|^2 =  1.378E-05

      iter #   3 total cpu time :    30.3 secs   av.it.:   7.2
      thresh= 3.712E-04 alpha_mix =  0.700 |ddv_scf|^2 =  1.307E-09

      iter #   4 total cpu time :    30.6 secs   av.it.:   7.7
      thresh= 3.615E-06 alpha_mix =  0.700 |ddv_scf|^2 =  2.417E-11

      iter #   5 total cpu time :    30.8 secs   av.it.:   7.4
      thresh= 4.916E-07 alpha_mix =  0.700 |ddv_scf|^2 =  1.937E-13

      iter #   6 total cpu time :    31.1 secs   av.it.:   7.4
      thresh= 4.402E-08 alpha_mix =  0.700 |ddv_scf|^2 =  1.999E-15

     End of self-consistent calculation

     Convergence has been achieved 


     Representation #  2 mode #   2

     Self-consistent Calculation

      iter #   1 total cpu time :    31.3 secs   av.it.:   5.5
      thresh= 1.000E-02 alpha_mix =  0.700 |ddv_scf|^2 =  2.725E-04

      iter #   2 total cpu time :    31.6 secs   av.it.:   8.1
      thresh= 1.651E-03 alpha_mix =  0.700 |ddv_scf|^2 =  8.703E-04

      iter #   3 total cpu time :    31.9 secs   av.it.:   7.1
      thresh= 2.950E-03 alpha_mix =  0.700 |ddv_scf|^2 =  2.590E-08

      iter #   4 total cpu time :    32.1 secs   av.it.:   8.0
      thresh= 1.609E-05 alpha_mix =  0.700 |ddv_scf|^2 =  6.005E-10

      iter #   5 total cpu time :    32.4 secs   av.it.:   8.1
      thresh= 2.451E-06 alpha_mix =  0.700 |ddv_scf|^2 =  4.340E-11

      iter #   6 total cpu time :    32.7 secs   av.it.:   7.5
      thresh= 6.588E-07 alpha_mix =  0.700 |ddv_scf|^2 =  3.510E-14

      iter #   7 total cpu time :    32.9 secs   av.it.:   8.0
      thresh= 1.874E-08 alpha_mix =  0.700 |ddv_scf|^2 =  2.529E-15

     End of self-consistent calculation

     Convergence has been achieved 


     Representation #  3 modes #   3  4

     Self-consistent Calculation

      iter #   1 total cpu time :    33.3 secs   av.it.:   5.0
      thresh= 1.000E-02 alpha_mix =  0.700 |ddv_scf|^2 =  7.892E-07

      iter #   2 total cpu time :    33.9 secs   av.it.:   9.3
      thresh= 8.884E-05 alpha_mix =  0.700 |ddv_scf|^2 =  6.440E-08

      iter #   3 total cpu time :    34.4 secs   av.it.:   9.1
      thresh= 2.538E-05 alpha_mix =  0.700 |ddv_scf|^2 =  6.535E-11

      iter #   4 total cpu time :    35.0 secs   av.it.:   8.7
      thresh= 8.084E-07 alpha_mix =  0.700 |ddv_scf|^2 =  2.838E-13

      iter #   5 total cpu time :    35.5 secs   av.it.:   8.9
      thresh= 5.327E-08 alpha_mix =  0.700 |ddv_scf|^2 =  1.420E-15

     End of self-consistent calculation

     Convergence has been achieved 


     Representation #  4 modes #   5  6

     Self-consistent Calculation

      iter #   1 total cpu time :    35.9 secs   av.it.:   4.8
      thresh= 1.000E-02 alpha_mix =  0.700 |ddv_scf|^2 =  9.041E-08

      iter #   2 total cpu time :    36.5 secs   av.it.:   9.3
      thresh= 3.007E-05 alpha_mix =  0.700 |ddv_scf|^2 =  1.615E-09

      iter #   3 total cpu time :    37.0 secs   av.it.:   9.1
      thresh= 4.018E-06 alpha_mix =  0.700 |ddv_scf|^2 =  4.802E-11

      iter #   4 total cpu time :    37.6 secs   av.it.:   8.6
      thresh= 6.930E-07 alpha_mix =  0.700 |ddv_scf|^2 =  8.760E-14

      iter #   5 total cpu time :    38.1 secs   av.it.:   9.2
      thresh= 2.960E-08 alpha_mix =  0.700 |ddv_scf|^2 =  1.220E-15

     End of self-consistent calculation

     Convergence has been achieved 
 
     Number of q in the star =    4
     List of q in the star:
          1   0.500000000  -0.500000000   0.500000000
          2   0.500000000   0.500000000   0.500000000
          3  -0.500000000   0.500000000   0.500000000
          4   0.500000000   0.500000000  -0.500000000

     Diagonalizing the dynamical matrix

     q = (    0.500000000  -0.500000000   0.500000000 ) 

 **************************************************************************
     freq (    1) =       3.281876 [THz] =     109.471610 [cm-1]
     freq (    2) =       3.281876 [THz] =     109.471610 [cm-1]
     freq (    3) =      11.303153 [THz] =     377.032603 [cm-1]
     freq (    4) =      12.548150 [THz] =     418.561245 [cm-1]
     freq (    5) =      14.786092 [THz] =     493.210942 [cm-1]
     freq (    6) =      14.786092 [THz] =     493.210942 [cm-1]
 **************************************************************************

     Calculation of q =    0.0000000   0.5000000   0.0000000
 
     Parallelization info
     --------------------
     sticks:   dense  smooth     PW     G-vecs:    dense   smooth      PW
     Min          29      29     10                  284      284      65
     Max          30      30     11                  285      285      68
     Sum         235     235     85                 2277     2277     531
 

     Title: 
     Phonons on a uniform q-grid                                                


     bravais-lattice index     =            2
     lattice parameter (alat)  =      10.2000  a.u.
     unit-cell volume          =     265.3020 (a.u.)^3
     number of atoms/cell      =            2
     number of atomic types    =            1
     number of electrons       =         8.00
     number of Kohn-Sham states=            4
     kinetic-energy cutoff     =      16.0000  Ry
     charge density cutoff     =      64.0000  Ry
     Exchange-correlation      = PZ ( 1  1  0  0 0 0)

     celldm(1)=  10.200000  celldm(2)=   0.000000  celldm(3)=   0.000000
     celldm(4)=   0.000000  celldm(5)=   0.000000  celldm(6)=   0.000000

     crystal axes: (cart. coord. in units of alat)
               a(1) = (  -0.500000   0.000000   0.500000 )  
               a(2) = (   0.000000   0.500000   0.500000 )  
               a(3) = (  -0.500000   0.500000   0.000000 )  

     reciprocal axes: (cart. coord. in units 2 pi/alat)
               b(1) = ( -1.000000 -1.000000  1.000000 )  
               b(2) = (  1.000000  1.000000  1.000000 )  
               b(3) = ( -1.000000  1.000000 -1.000000 )  


     PseudoPot. # 1 for Si read from file:
     ./Si.vbc.UPF
     MD5 check sum: bcd8ae23180a2f07cc8655fe7dcd9644
     Pseudo is Norm-conserving, Zval =  4.0
     Generated by new atomic code, or converted to UPF format
     Using radial grid of  431 points,  2 beta functions with: 
                l(1) =   0
                l(2) =   1

     atomic species   valence    mass     pseudopotential
        Si             4.00    28.08550     Si( 1.00)

     48 Sym. Ops., with inversion, found



   Cartesian axes

     site n.     atom                  positions (alat units)
         1           Si  tau(   1) = (   0.0000000   0.0000000   0.0000000  )
         2           Si  tau(   2) = (   0.2500000   0.2500000   0.2500000  )

     number of k points=    80
                       cart. coord. in units 2pi/alat
        k(    1) = (   0.1250000   0.1250000   0.1250000), wk =   0.0312500
        k(    2) = (   0.1250000   0.6250000   0.1250000), wk =   0.0000000
        k(    3) = (   0.1250000   0.1250000   0.3750000), wk =   0.0625000
        k(    4) = (   0.1250000   0.6250000   0.3750000), wk =   0.0000000
        k(    5) = (   0.1250000   0.1250000   0.6250000), wk =   0.0625000
        k(    6) = (   0.1250000   0.6250000   0.6250000), wk =   0.0000000
        k(    7) = (   0.1250000   0.1250000   0.8750000), wk =   0.0625000
        k(    8) = (   0.1250000   0.6250000   0.8750000), wk =   0.0000000
        k(    9) = (   0.1250000   0.3750000   0.3750000), wk =   0.0625000
        k(   10) = (   0.1250000   0.8750000   0.3750000), wk =   0.0000000
        k(   11) = (   0.1250000   0.3750000   0.6250000), wk =   0.0625000
        k(   12) = (   0.1250000   0.8750000   0.6250000), wk =   0.0000000
        k(   13) = (   0.1250000   0.3750000   0.8750000), wk =   0.0625000
        k(   14) = (   0.1250000   0.8750000   0.8750000), wk =   0.0000000
        k(   15) = (   0.1250000   0.6250000   0.6250000), wk =   0.0625000
        k(   16) = (   0.1250000   1.1250000   0.6250000), wk =   0.0000000
        k(   17) = (   0.3750000   0.3750000   0.3750000), wk =   0.0312500
        k(   18) = (   0.3750000   0.8750000   0.3750000), wk =   0.0000000
        k(   19) = (   0.3750000   0.3750000   0.6250000), wk =   0.0625000
        k(   20) = (   0.3750000   0.8750000   0.6250000), wk =   0.0000000
        k(   21) = (  -0.1250000  -0.1250000  -0.1250000), wk =   0.0312500
        k(   22) = (  -0.1250000   0.3750000  -0.1250000), wk =   0.0000000
        k(   23) = (  -0.3750000  -0.1250000  -0.1250000), wk =   0.0625000
        k(   24) = (  -0.3750000   0.3750000  -0.1250000), wk =   0.0000000
        k(   25) = (   0.1250000   0.3750000  -0.1250000), wk =   0.0312500
        k(   26) = (   0.1250000   0.8750000  -0.1250000), wk =   0.0000000
        k(   27) = (   0.1250000  -0.3750000  -0.1250000), wk =   0.0312500
        k(   28) = (   0.1250000   0.1250000  -0.1250000), wk =   0.0000000
        k(   29) = (  -0.6250000  -0.1250000  -0.1250000), wk =   0.0625000
        k(   30) = (  -0.6250000   0.3750000  -0.1250000), wk =   0.0000000
        k(   31) = (   0.1250000   0.6250000  -0.1250000), wk =   0.0312500
        k(   32) = (   0.1250000   1.1250000  -0.1250000), wk =   0.0000000
        k(   33) = (   0.1250000  -0.6250000  -0.1250000), wk =   0.0312500
        k(   34) = (   0.1250000  -0.1250000  -0.1250000), wk =   0.0000000
        k(   35) = (  -0.8750000  -0.1250000  -0.1250000), wk =   0.0625000
        k(   36) = (  -0.8750000   0.3750000  -0.1250000), wk =   0.0000000
        k(   37) = (   0.1250000   0.8750000  -0.1250000), wk =   0.0312500
        k(   38) = (   0.1250000   1.3750000  -0.1250000), wk =   0.0000000
        k(   39) = (   0.1250000  -0.8750000  -0.1250000), wk =   0.0312500
        k(   40) = (   0.1250000  -0.3750000  -0.1250000), wk =   0.0000000
        k(   41) = (  -0.3750000  -0.3750000  -0.1250000), wk =   0.0625000
        k(   42) = (  -0.3750000   0.1250000  -0.1250000), wk =   0.0000000
        k(   43) = (   0.3750000   0.1250000  -0.3750000), wk =   0.0312500
        k(   44) = (   0.3750000   0.6250000  -0.3750000), wk =   0.0000000
        k(   45) = (   0.3750000  -0.1250000  -0.3750000), wk =   0.0312500
        k(   46) = (   0.3750000   0.3750000  -0.3750000), wk =   0.0000000
        k(   47) = (  -0.6250000  -0.3750000  -0.1250000), wk =   0.0625000
        k(   48) = (  -0.6250000   0.1250000  -0.1250000), wk =   0.0000000
        k(   49) = (   0.3750000   0.1250000  -0.6250000), wk =   0.0625000
        k(   50) = (   0.3750000   0.6250000  -0.6250000), wk =   0.0000000
        k(   51) = (   0.3750000   0.6250000  -0.1250000), wk =   0.0625000
        k(   52) = (   0.3750000   1.1250000  -0.1250000), wk =   0.0000000
        k(   53) = (   0.3750000  -0.6250000  -0.1250000), wk =   0.0625000
        k(   54) = (   0.3750000  -0.1250000  -0.1250000), wk =   0.0000000
        k(   55) = (   0.6250000  -0.1250000  -0.3750000), wk =   0.0625000
        k(   56) = (   0.6250000   0.3750000  -0.3750000), wk =   0.0000000
        k(   57) = (  -0.8750000  -0.3750000  -0.1250000), wk =   0.0625000
        k(   58) = (  -0.8750000   0.1250000  -0.1250000), wk =   0.0000000
        k(   59) = (   0.3750000   0.1250000  -0.8750000), wk =   0.0625000
        k(   60) = (   0.3750000   0.6250000  -0.8750000), wk =   0.0000000
        k(   61) = (   0.3750000   0.8750000  -0.1250000), wk =   0.0625000
        k(   62) = (   0.3750000   1.3750000  -0.1250000), wk =   0.0000000
        k(   63) = (   0.3750000  -0.8750000  -0.1250000), wk =   0.0625000
        k(   64) = (   0.3750000  -0.3750000  -0.1250000), wk =   0.0000000
        k(   65) = (   0.8750000  -0.1250000  -0.3750000), wk =   0.0625000
        k(   66) = (   0.8750000   0.3750000  -0.3750000), wk =   0.0000000
        k(   67) = (  -0.6250000  -0.6250000  -0.1250000), wk =   0.0625000
        k(   68) = (  -0.6250000  -0.1250000  -0.1250000), wk =   0.0000000
        k(   69) = (   0.6250000   0.1250000  -0.6250000), wk =   0.0312500
        k(   70) = (   0.6250000   0.6250000  -0.6250000), wk =   0.0000000
        k(   71) = (   0.6250000  -0.1250000  -0.6250000), wk =   0.0312500
        k(   72) = (   0.6250000   0.3750000  -0.6250000), wk =   0.0000000
        k(   73) = (  -0.3750000  -0.3750000  -0.3750000), wk =   0.0312500
        k(   74) = (  -0.3750000   0.1250000  -0.3750000), wk =   0.0000000
        k(   75) = (  -0.6250000  -0.3750000  -0.3750000), wk =   0.0625000
        k(   76) = (  -0.6250000   0.1250000  -0.3750000), wk =   0.0000000
        k(   77) = (   0.3750000   0.6250000  -0.3750000), wk =   0.0312500
        k(   78) = (   0.3750000   1.1250000  -0.3750000), wk =   0.0000000
        k(   79) = (   0.3750000  -0.6250000  -0.3750000), wk =   0.0312500
        k(   80) = (   0.3750000  -0.1250000  -0.3750000), wk =   0.0000000

     Dense  grid:     2277 G-vectors     FFT dimensions: (  20,  20,  20)

     Estimated max dynamical RAM per process >       0.25 MB

     Estimated total dynamical RAM >       1.97 MB

     The potential is recalculated from file :
     ./out/_ph0/Si.save/charge-density

     Starting wfcs are    8 atomic wfcs

     Band Structure Calculation
     Davidson diagonalization with overlap

     ethr =  1.25E-10,  avg # of iterations = 11.4

     total cpu time spent up to now is        3.0 secs

     End of band structure calculation

          k = 0.1250 0.1250 0.1250 (   295 PWs)   bands (ev):

    -5.5991   4.6524   5.9601   5.9601

          k = 0.1250 0.6250 0.1250 (   289 PWs)   bands (ev):

    -3.9779   1.3239   3.5204   3.9946

          k = 0.1250 0.1250 0.3750 (   293 PWs)   bands (ev):

    -5.0461   3.0247   4.9038   4.9946

          k = 0.1250 0.6250 0.3750 (   288 PWs)   bands (ev):

    -3.5383   0.3849   2.8610   4.2772

          k = 0.1250 0.1250 0.6250 (   289 PWs)   bands (ev):

    -3.9779   1.3239   3.5204   3.9946

          k = 0.1250 0.6250 0.6250 (   286 PWs)   bands (ev):

    -2.8126  -0.4288   2.1661   4.3260

          k = 0.1250 0.1250 0.8750 (   286 PWs)   bands (ev):

    -2.4499  -0.5803   2.7288   3.5105

          k = 0.1250 0.6250 0.8750 (   283 PWs)   bands (ev):

    -2.2583  -0.6913   2.0848   3.2152

          k = 0.1250 0.3750 0.3750 (   292 PWs)   bands (ev):

    -4.5266   1.6005   3.8940   5.4660

          k = 0.1250 0.8750 0.3750 (   283 PWs)   bands (ev):

    -2.2583  -0.6913   2.0848   3.2152

          k = 0.1250 0.3750 0.6250 (   288 PWs)   bands (ev):

    -3.5383   0.3849   2.8610   4.2772

          k = 0.1250 0.8750 0.6250 (   283 PWs)   bands (ev):

    -2.2583  -0.6913   2.0848   3.2152

          k = 0.1250 0.3750 0.8750 (   283 PWs)   bands (ev):

    -2.2583  -0.6913   2.0848   3.2152

          k = 0.1250 0.8750 0.8750 (   286 PWs)   bands (ev):

    -2.4499  -0.5803   2.7288   3.5105

          k = 0.1250 0.6250 0.6250 (   286 PWs)   bands (ev):

    -2.8126  -0.4288   2.1661   4.3260

          k = 0.1250 1.1250 0.6250 (   283 PWs)   bands (ev):

    -2.2583  -0.6913   2.0848   3.2152

          k = 0.3750 0.3750 0.3750 (   281 PWs)   bands (ev):

    -4.0665   0.2415   5.1458   5.1458

          k = 0.3750 0.8750 0.3750 (   286 PWs)   bands (ev):

    -2.8126  -0.4288   2.1661   4.3260

          k = 0.3750 0.3750 0.6250 (   281 PWs)   bands (ev):

    -3.3195  -0.5726   3.9395   4.6600

          k = 0.3750 0.8750 0.6250 (   288 PWs)   bands (ev):

    -3.5383   0.3849   2.8610   4.2772

          k =-0.1250-0.1250-0.1250 (   295 PWs)   bands (ev):

    -5.5991   4.6524   5.9601   5.9601

          k =-0.1250 0.3750-0.1250 (   293 PWs)   bands (ev):

    -5.0461   3.0247   4.9038   4.9946

          k =-0.3750-0.1250-0.1250 (   293 PWs)   bands (ev):

    -5.0461   3.0247   4.9038   4.9946

          k =-0.3750 0.3750-0.1250 (   292 PWs)   bands (ev):

    -4.5266   1.6005   3.8940   5.4660

          k = 0.1250 0.3750-0.1250 (   293 PWs)   bands (ev):

    -5.0461   3.0247   4.9038   4.9946

          k = 0.1250 0.8750-0.1250 (   286 PWs)   bands (ev):

    -2.4499  -0.5803   2.7288   3.5105

          k = 0.1250-0.3750-0.1250 (   293 PWs)   bands (ev):

    -5.0461   3.0247   4.9038   4.9946

          k = 0.1250 0.1250-0.1250 (   295 PWs)   bands (ev):

    -5.5991   4.6524   5.9601   5.9601

          k =-0.6250-0.1250-0.1250 (   289 PWs)   bands (ev):

    -3.9779   1.3239   3.5204   3.9946

          k =-0.6250 0.3750-0.1250 (   288 PWs)   bands (ev):

    -3.5383   0.3849   2.8610   4.2772

          k = 0.1250 0.6250-0.1250 (   289 PWs)   bands (ev):

    -3.9779   1.3239   3.5204   3.9946

          k = 0.1250 1.1250-0.1250 (   286 PWs)   bands (ev):

    -2.4499  -0.5803   2.7288   3.5105

          k = 0.1250-0.6250-0.1250 (   289 PWs)   bands (ev):

    -3.9779   1.3239   3.5204   3.9946

          k = 0.1250-0.1250-0.1250 (   295 PWs)   bands (ev):

    -5.5991   4.6524   5.9601   5.9601

          k =-0.8750-0.1250-0.1250 (   286 PWs)   bands (ev):

    -2.4499  -0.5803   2.7288   3.5105

          k =-0.8750 0.3750-0.1250 (   283 PWs)   bands (ev):

    -2.2583  -0.6913   2.0848   3.2152

          k = 0.1250 0.8750-0.1250 (   286 PWs)   bands (ev):

    -2.4499  -0.5803   2.7288   3.5105

          k = 0.1250 1.3750-0.1250 (   289 PWs)   bands (ev):

    -3.9779   1.3239   3.5204   3.9946

          k = 0.1250-0.8750-0.1250 (   286 PWs)   bands (ev):

    -2.4499  -0.5803   2.7288   3.5105

          k = 0.1250-0.3750-0.1250 (   293 PWs)   bands (ev):

    -5.0461   3.0247   4.9038   4.9946

          k =-0.3750-0.3750-0.1250 (   292 PWs)   bands (ev):

    -4.5266   1.6005   3.8940   5.4660

          k =-0.3750 0.1250-0.1250 (   293 PWs)   bands (ev):

    -5.0461   3.0247   4.9038   4.9946

          k = 0.3750 0.1250-0.3750 (   292 PWs)   bands (ev):

    -4.5266   1.6005   3.8940   5.4660

          k = 0.3750 0.6250-0.3750 (   281 PWs)   bands (ev):

    -3.3195  -0.5726   3.9395   4.6600

          k = 0.3750-0.1250-0.3750 (   292 PWs)   bands (ev):

    -4.5266   1.6005   3.8940   5.4660

          k = 0.3750 0.3750-0.3750 (   281 PWs)   bands (ev):

    -4.0665   0.2415   5.1458   5.1458

          k =-0.6250-0.3750-0.1250 (   288 PWs)   bands (ev):

    -3.5383   0.3849   2.8610   4.2772

          k =-0.6250 0.1250-0.1250 (   289 PWs)   bands (ev):

    -3.9779   1.3239   3.5204   3.9946

          k = 0.3750 0.1250-0.6250 (   288 PWs)   bands (ev):

    -3.5383   0.3849   2.8610   4.2772

          k = 0.3750 0.6250-0.6250 (   281 PWs)   bands (ev):

    -3.3195  -0.5726   3.9395   4.6600

          k = 0.3750 0.6250-0.1250 (   288 PWs)   bands (ev):

    -3.5383   0.3849   2.8610   4.2772

          k = 0.3750 1.1250-0.1250 (   283 PWs)   bands (ev):

    -2.2583  -0.6913   2.0848   3.2152

          k = 0.3750-0.6250-0.1250 (   288 PWs)   bands (ev):

    -3.5383   0.3849   2.8610   4.2772

          k = 0.3750-0.1250-0.1250 (   293 PWs)   bands (ev):

    -5.0461   3.0247   4.9038   4.9946

          k = 0.6250-0.1250-0.3750 (   288 PWs)   bands (ev):

    -3.5383   0.3849   2.8610   4.2772

          k = 0.6250 0.3750-0.3750 (   281 PWs)   bands (ev):

    -3.3195  -0.5726   3.9395   4.6600

          k =-0.8750-0.3750-0.1250 (   283 PWs)   bands (ev):

    -2.2583  -0.6913   2.0848   3.2152

          k =-0.8750 0.1250-0.1250 (   286 PWs)   bands (ev):

    -2.4499  -0.5803   2.7288   3.5105

          k = 0.3750 0.1250-0.8750 (   283 PWs)   bands (ev):

    -2.2583  -0.6913   2.0848   3.2152

          k = 0.3750 0.6250-0.8750 (   288 PWs)   bands (ev):

    -3.5383   0.3849   2.8610   4.2772

          k = 0.3750 0.8750-0.1250 (   283 PWs)   bands (ev):

    -2.2583  -0.6913   2.0848   3.2152

          k = 0.3750 1.3750-0.1250 (   288 PWs)   bands (ev):

    -3.5383   0.3849   2.8610   4.2772

          k = 0.3750-0.8750-0.1250 (   283 PWs)   bands (ev):

    -2.2583  -0.6913   2.0848   3.2152

          k = 0.3750-0.3750-0.1250 (   292 PWs)   bands (ev):

    -4.5266   1.6005   3.8940   5.4660

          k = 0.8750-0.1250-0.3750 (   283 PWs)   bands (ev):

    -2.2583  -0.6913   2.0848   3.2152

          k = 0.8750 0.3750-0.3750 (   286 PWs)   bands (ev):

    -2.8126  -0.4288   2.1661   4.3260

          k =-0.6250-0.6250-0.1250 (   286 PWs)   bands (ev):

    -2.8126  -0.4288   2.1661   4.3260

          k =-0.6250-0.1250-0.1250 (   289 PWs)   bands (ev):

    -3.9779   1.3239   3.5204   3.9946

          k = 0.6250 0.1250-0.6250 (   286 PWs)   bands (ev):

    -2.8126  -0.4288   2.1661   4.3260

          k = 0.6250 0.6250-0.6250 (   281 PWs)   bands (ev):

    -4.0665   0.2415   5.1458   5.1458

          k = 0.6250-0.1250-0.6250 (   286 PWs)   bands (ev):

    -2.8126  -0.4288   2.1661   4.3260

          k = 0.6250 0.3750-0.6250 (   281 PWs)   bands (ev):

    -3.3195  -0.5726   3.9395   4.6600

          k =-0.3750-0.3750-0.3750 (   281 PWs)   bands (ev):

    -4.0665   0.2415   5.1458   5.1458

          k =-0.3750 0.1250-0.3750 (   292 PWs)   bands (ev):

    -4.5266   1.6005   3.8940   5.4660

          k =-0.6250-0.3750-0.3750 (   281 PWs)   bands (ev):

    -3.3195  -0.5726   3.9395   4.6600

          k =-0.6250 0.1250-0.3750 (   288 PWs)   bands (ev):

    -3.5383   0.3849   2.8610   4.2772

          k = 0.3750 0.6250-0.3750 (   281 PWs)   bands (ev):

    -3.3195  -0.5726   3.9395   4.6600

          k = 0.3750 1.1250-0.3750 (   286 PWs)   bands (ev):

    -2.8126  -0.4288   2.1661   4.3260

          k = 0.3750-0.6250-0.3750 (   281 PWs)   bands (ev):

    -3.3195  -0.5726   3.9395   4.6600

          k = 0.3750-0.1250-0.3750 (   292 PWs)   bands (ev):

    -4.5266   1.6005   3.8940   5.4660

     highest occupied level (ev):     5.9601

     Writing output data file Si.save/

     Phonons on a uniform q-grid                                                

     bravais-lattice index     =            2
     lattice parameter (alat)  =      10.2000  a.u.
     unit-cell volume          =     265.3020 (a.u.)^3
     number of atoms/cell      =            2
     number of atomic types    =            1
     kinetic-energy cut-off    =      16.0000  Ry
     charge density cut-off    =      64.0000  Ry
     convergence threshold     =      1.0E-14
     beta                      =       0.7000
     number of iterations used =            4
     Exchange-correlation      = PZ ( 1  1  0  0 0 0)


     celldm(1)=   10.20000  celldm(2)=    0.00000  celldm(3)=    0.00000
     celldm(4)=    0.00000  celldm(5)=    0.00000  celldm(6)=    0.00000

     crystal axes: (cart. coord. in units of alat)
               a(1) = ( -0.5000  0.0000  0.5000 )  
               a(2) = (  0.0000  0.5000  0.5000 )  
               a(3) = ( -0.5000  0.5000  0.0000 )  

     reciprocal axes: (cart. coord. in units 2 pi/alat)
               b(1) = ( -1.0000 -1.0000  1.0000 )  
               b(2) = (  1.0000  1.0000  1.0000 )  
               b(3) = ( -1.0000  1.0000 -1.0000 )  


     Atoms inside the unit cell: 

     Cartesian axes

     site n.  atom      mass           positions (alat units)
        1     Si  28.0855   tau(    1) = (    0.00000    0.00000    0.00000  )
        2     Si  28.0855   tau(    2) = (    0.25000    0.25000    0.25000  )

     Computing dynamical matrix for 
                    q = (   0.0000000   0.5000000   0.0000000 )
 
      8 Sym.Ops. (no q -> -q+G )


     G cutoff =  168.6633  (    285 G-vectors)     FFT grid: ( 20, 20, 20)
     number of k points=    80

     PseudoPot. # 1 for Si read from file:
     ./Si.vbc.UPF
     MD5 check sum: bcd8ae23180a2f07cc8655fe7dcd9644
     Pseudo is Norm-conserving, Zval =  4.0
     Generated by new atomic code, or converted to UPF format
     Using radial grid of  431 points,  2 beta functions with: 
                l(1) =   0
                l(2) =   1

     Mode symmetry, C_4v (4mm)  point group:


     Atomic displacements:
     There are   4 irreducible representations

     Representation     1      1 modes -A_1  G_1 D_1  To be done

     Representation     2      1 modes -B_2  G_4 D_2'  To be done

     Representation     3      2 modes -E    G_5 D_5  To be done

     Representation     4      2 modes -E    G_5 D_5  To be done



     Alpha used in Ewald sum =   0.7000
     PHONON       :     29.49s CPU     39.27s WALL



     Representation #  1 mode #   1

     Self-consistent Calculation

      iter #   1 total cpu time :    39.5 secs   av.it.:   5.7
      thresh= 1.000E-02 alpha_mix =  0.700 |ddv_scf|^2 =  2.180E-03

      iter #   2 total cpu time :    39.9 secs   av.it.:   7.5
      thresh= 4.669E-03 alpha_mix =  0.700 |ddv_scf|^2 =  2.879E-02

      iter #   3 total cpu time :    40.2 secs   av.it.:   6.5
      thresh= 1.000E-02 alpha_mix =  0.700 |ddv_scf|^2 =  1.887E-08

      iter #   4 total cpu time :    40.5 secs   av.it.:   8.6
      thresh= 1.374E-05 alpha_mix =  0.700 |ddv_scf|^2 =  1.055E-09

      iter #   5 total cpu time :    40.9 secs   av.it.:   8.3
      thresh= 3.248E-06 alpha_mix =  0.700 |ddv_scf|^2 =  2.030E-11

      iter #   6 total cpu time :    41.2 secs   av.it.:   7.6
      thresh= 4.505E-07 alpha_mix =  0.700 |ddv_scf|^2 =  4.376E-13

      iter #   7 total cpu time :    41.5 secs   av.it.:   7.4
      thresh= 6.615E-08 alpha_mix =  0.700 |ddv_scf|^2 =  1.250E-14

      iter #   8 total cpu time :    41.8 secs   av.it.:   6.9
      thresh= 1.118E-08 alpha_mix =  0.700 |ddv_scf|^2 =  2.026E-18

     End of self-consistent calculation

     Convergence has been achieved 


     Representation #  2 mode #   2

     Self-consistent Calculation

      iter #   1 total cpu time :    42.1 secs   av.it.:   4.9
      thresh= 1.000E-02 alpha_mix =  0.700 |ddv_scf|^2 =  3.812E-06

      iter #   2 total cpu time :    42.5 secs   av.it.:   8.3
      thresh= 1.952E-04 alpha_mix =  0.700 |ddv_scf|^2 =  8.387E-07

      iter #   3 total cpu time :    42.8 secs   av.it.:   8.0
      thresh= 9.158E-05 alpha_mix =  0.700 |ddv_scf|^2 =  3.563E-09

      iter #   4 total cpu time :    43.2 secs   av.it.:   8.1
      thresh= 5.969E-06 alpha_mix =  0.700 |ddv_scf|^2 =  6.177E-11

      iter #   5 total cpu time :    43.5 secs   av.it.:   7.8
      thresh= 7.859E-07 alpha_mix =  0.700 |ddv_scf|^2 =  1.284E-12

      iter #   6 total cpu time :    43.8 secs   av.it.:   7.7
      thresh= 1.133E-07 alpha_mix =  0.700 |ddv_scf|^2 =  8.276E-16

     End of self-consistent calculation

     Convergence has been achieved 


     Representation #  3 modes #   3  4

     Self-consistent Calculation

      iter #   1 total cpu time :    44.4 secs   av.it.:   5.0
      thresh= 1.000E-02 alpha_mix =  0.700 |ddv_scf|^2 =  8.646E-07

      iter #   2 total cpu time :    45.1 secs   av.it.:   9.2
      thresh= 9.298E-05 alpha_mix =  0.700 |ddv_scf|^2 =  1.309E-07

      iter #   3 total cpu time :    45.8 secs   av.it.:   8.8
      thresh= 3.618E-05 alpha_mix =  0.700 |ddv_scf|^2 =  9.279E-11

      iter #   4 total cpu time :    46.4 secs   av.it.:   8.7
      thresh= 9.633E-07 alpha_mix =  0.700 |ddv_scf|^2 =  5.207E-12

      iter #   5 total cpu time :    47.1 secs   av.it.:   8.6
      thresh= 2.282E-07 alpha_mix =  0.700 |ddv_scf|^2 =  5.989E-15

     End of self-consistent calculation

     Convergence has been achieved 


     Representation #  4 modes #   5  6

     Self-consistent Calculation

      iter #   1 total cpu time :    47.7 secs   av.it.:   5.0
      thresh= 1.000E-02 alpha_mix =  0.700 |ddv_scf|^2 =  5.703E-07

      iter #   2 total cpu time :    48.4 secs   av.it.:   9.3
      thresh= 7.552E-05 alpha_mix =  0.700 |ddv_scf|^2 =  8.402E-08

      iter #   3 total cpu time :    49.1 secs   av.it.:   8.9
      thresh= 2.899E-05 alpha_mix =  0.700 |ddv_scf|^2 =  1.005E-10

      iter #   4 total cpu time :    49.8 secs   av.it.:   8.8
      thresh= 1.003E-06 alpha_mix =  0.700 |ddv_scf|^2 =  5.768E-12

      iter #   5 total cpu time :    50.5 secs   av.it.:   8.6
      thresh= 2.402E-07 alpha_mix =  0.700 |ddv_scf|^2 =  6.949E-15

     End of self-consistent calculation

     Convergence has been achieved 
 
     Number of q in the star =    6
     List of q in the star:
          1   0.000000000   0.500000000   0.000000000
          2   0.000000000  -0.500000000   0.000000000
          3   0.500000000   0.000000000   0.000000000
          4   0.000000000   0.000000000   0.500000000
          5   0.000000000   0.000000000  -0.500000000
          6  -0.500000000   0.000000000   0.000000000

     Diagonalizing the dynamical matrix

     q = (    0.000000000   0.500000000   0.000000000 ) 

 **************************************************************************
     freq (    1) =       3.834654 [THz] =     127.910282 [cm-1]
     freq (    2) =       3.834654 [THz] =     127.910282 [cm-1]
     freq (    3) =       7.313362 [THz] =     243.947487 [cm-1]
     freq (    4) =      14.339493 [THz] =     478.314009 [cm-1]
     freq (    5) =      14.339493 [THz] =     478.314009 [cm-1]
     freq (    6) =      14.863765 [THz] =     495.801829 [cm-1]
 **************************************************************************

     Mode symmetry, C_4v (4mm)  point group:

     freq (  1 -  2) =        127.9  [cm-1]   --> E    G_5 D_5       
     freq (  3 -  3) =        243.9  [cm-1]   --> A_1  G_1 D_1       
     freq (  4 -  5) =        478.3  [cm-1]   --> E    G_5 D_5       
     freq (  6 -  6) =        495.8  [cm-1]   --> B_2  G_4 D_2'      

     Calculation of q =    0.7500000  -0.2500000   0.7500000
 
     Parallelization info
     --------------------
     sticks:   dense  smooth     PW     G-vecs:    dense   smooth      PW
     Min          29      29     12                  284      284      80
     Max          30      30     13                  285      285      81
     Sum         235     235     97                 2277     2277     645
 

     Title: 
     Phonons on a uniform q-grid                                                


     bravais-lattice index     =            2
     lattice parameter (alat)  =      10.2000  a.u.
     unit-cell volume          =     265.3020 (a.u.)^3
     number of atoms/cell      =            2
     number of atomic types    =            1
     number of electrons       =         8.00
     number of Kohn-Sham states=            4
     kinetic-energy cutoff     =      16.0000  Ry
     charge density cutoff     =      64.0000  Ry
     Exchange-correlation      = PZ ( 1  1  0  0 0 0)

     celldm(1)=  10.200000  celldm(2)=   0.000000  celldm(3)=   0.000000
     celldm(4)=   0.000000  celldm(5)=   0.000000  celldm(6)=   0.000000

     crystal axes: (cart. coord. in units of alat)
               a(1) = (  -0.500000   0.000000   0.500000 )  
               a(2) = (   0.000000   0.500000   0.500000 )  
               a(3) = (  -0.500000   0.500000   0.000000 )  

     reciprocal axes: (cart. coord. in units 2 pi/alat)
               b(1) = ( -1.000000 -1.000000  1.000000 )  
               b(2) = (  1.000000  1.000000  1.000000 )  
               b(3) = ( -1.000000  1.000000 -1.000000 )  


     PseudoPot. # 1 for Si read from file:
     ./Si.vbc.UPF
     MD5 check sum: bcd8ae23180a2f07cc8655fe7dcd9644
     Pseudo is Norm-conserving, Zval =  4.0
     Generated by new atomic code, or converted to UPF format
     Using radial grid of  431 points,  2 beta functions with: 
                l(1) =   0
                l(2) =   1

     atomic species   valence    mass     pseudopotential
        Si             4.00    28.08550     Si( 1.00)

     48 Sym. Ops., with inversion, found



   Cartesian axes

     site n.     atom                  positions (alat units)
         1           Si  tau(   1) = (   0.0000000   0.0000000   0.0000000  )
         2           Si  tau(   2) = (   0.2500000   0.2500000   0.2500000  )

     number of k points=   288

     Number of k-points >= 100: set verbosity='high' to print them.

     Dense  grid:     2277 G-vectors     FFT dimensions: (  20,  20,  20)

     Estimated max dynamical RAM per process >       0.25 MB

     Estimated total dynamical RAM >       2.01 MB

     The potential is recalculated from file :
     ./out/_ph0/Si.save/charge-density

     Starting wfcs are    8 atomic wfcs

     Band Structure Calculation
     Davidson diagonalization with overlap

     ethr =  1.25E-10,  avg # of iterations = 11.4

     total cpu time spent up to now is        6.1 secs

     End of band structure calculation

     Number of k-points >= 100: set verbosity='high' to print the bands.

     highest occupied level (ev):     5.9601

     Writing output data file Si.save/

     Phonons on a uniform q-grid                                                

     bravais-lattice index     =            2
     lattice parameter (alat)  =      10.2000  a.u.
     unit-cell volume          =     265.3020 (a.u.)^3
     number of atoms/cell      =            2
     number of atomic types    =            1
     kinetic-energy cut-off    =      16.0000  Ry
     charge density cut-off    =      64.0000  Ry
     convergence threshold     =      1.0E-14
     beta                      =       0.7000
     number of iterations used =            4
     Exchange-correlation      = PZ ( 1  1  0  0 0 0)


     celldm(1)=   10.20000  celldm(2)=    0.00000  celldm(3)=    0.00000
     celldm(4)=    0.00000  celldm(5)=    0.00000  celldm(6)=    0.00000

     crystal axes: (cart. coord. in units of alat)
               a(1) = ( -0.5000  0.0000  0.5000 )  
               a(2) = (  0.0000  0.5000  0.5000 )  
               a(3) = ( -0.5000  0.5000  0.0000 )  

     reciprocal axes: (cart. coord. in units 2 pi/alat)
               b(1) = ( -1.0000 -1.0000  1.0000 )  
               b(2) = (  1.0000  1.0000  1.0000 )  
               b(3) = ( -1.0000  1.0000 -1.0000 )  


     Atoms inside the unit cell: 

     Cartesian axes

     site n.  atom      mass           positions (alat units)
        1     Si  28.0855   tau(    1) = (    0.00000    0.00000    0.00000  )
        2     Si  28.0855   tau(    2) = (    0.25000    0.25000    0.25000  )

     Computing dynamical matrix for 
                    q = (   0.7500000  -0.2500000   0.7500000 )
 
      2 Sym.Ops. (no q -> -q+G )


     G cutoff =  168.6633  (    285 G-vectors)     FFT grid: ( 20, 20, 20)
     number of k points=   288

     PseudoPot. # 1 for Si read from file:
     ./Si.vbc.UPF
     MD5 check sum: bcd8ae23180a2f07cc8655fe7dcd9644
     Pseudo is Norm-conserving, Zval =  4.0
     Generated by new atomic code, or converted to UPF format
     Using radial grid of  431 points,  2 beta functions with: 
                l(1) =   0
                l(2) =   1

     Mode symmetry, C_s (m)     point group:


     Atomic displacements:
     There are   6 irreducible representations

     Representation     1      1 modes -A'  To be done

     Representation     2      1 modes -A'  To be done

     Representation     3      1 modes -A'  To be done

     Representation     4      1 modes -A'  To be done

     Representation     5      1 modes -A''  To be done

     Representation     6      1 modes -A''  To be done



     Alpha used in Ewald sum =   0.7000
     PHONON       :     40.69s CPU     53.93s WALL



     Representation #  1 mode #   1

     Self-consistent Calculation

      iter #   1 total cpu time :    54.8 secs   av.it.:   5.4
      thresh= 1.000E-02 alpha_mix =  0.700 |ddv_scf|^2 =  9.441E-05

      iter #   2 total cpu time :    56.0 secs   av.it.:   8.3
      thresh= 9.716E-04 alpha_mix =  0.700 |ddv_scf|^2 =  2.701E-04

      iter #   3 total cpu time :    57.1 secs   av.it.:   7.2
      thresh= 1.643E-03 alpha_mix =  0.700 |ddv_scf|^2 =  1.029E-06

      iter #   4 total cpu time :    58.1 secs   av.it.:   7.8
      thresh= 1.015E-04 alpha_mix =  0.700 |ddv_scf|^2 =  4.203E-09

      iter #   5 total cpu time :    59.3 secs   av.it.:   8.2
      thresh= 6.483E-06 alpha_mix =  0.700 |ddv_scf|^2 =  3.855E-10

      iter #   6 total cpu time :    60.5 secs   av.it.:   8.1
      thresh= 1.964E-06 alpha_mix =  0.700 |ddv_scf|^2 =  1.525E-11

      iter #   7 total cpu time :    61.7 secs   av.it.:   8.2
      thresh= 3.905E-07 alpha_mix =  0.700 |ddv_scf|^2 =  8.337E-13

      iter #   8 total cpu time :    62.9 secs   av.it.:   8.3
      thresh= 9.131E-08 alpha_mix =  0.700 |ddv_scf|^2 =  2.417E-13

      iter #   9 total cpu time :    64.0 secs   av.it.:   7.8
      thresh= 4.916E-08 alpha_mix =  0.700 |ddv_scf|^2 =  1.505E-13

      iter #  10 total cpu time :    65.2 secs   av.it.:   7.6
      thresh= 3.880E-08 alpha_mix =  0.700 |ddv_scf|^2 =  2.430E-14

      iter #  11 total cpu time :    66.3 secs   av.it.:   7.5
      thresh= 1.559E-08 alpha_mix =  0.700 |ddv_scf|^2 =  2.436E-16

     End of self-consistent calculation

     Convergence has been achieved 


     Representation #  2 mode #   2

     Self-consistent Calculation

      iter #   1 total cpu time :    67.2 secs   av.it.:   5.4
      thresh= 1.000E-02 alpha_mix =  0.700 |ddv_scf|^2 =  5.773E-05

      iter #   2 total cpu time :    68.4 secs   av.it.:   8.3
      thresh= 7.598E-04 alpha_mix =  0.700 |ddv_scf|^2 =  1.604E-04

      iter #   3 total cpu time :    69.4 secs   av.it.:   7.2
      thresh= 1.267E-03 alpha_mix =  0.700 |ddv_scf|^2 =  5.703E-07

      iter #   4 total cpu time :    70.5 secs   av.it.:   8.0
      thresh= 7.552E-05 alpha_mix =  0.700 |ddv_scf|^2 =  4.190E-09

      iter #   5 total cpu time :    71.7 secs   av.it.:   8.1
      thresh= 6.473E-06 alpha_mix =  0.700 |ddv_scf|^2 =  6.341E-10

      iter #   6 total cpu time :    72.8 secs   av.it.:   8.0
      thresh= 2.518E-06 alpha_mix =  0.700 |ddv_scf|^2 =  2.177E-11

      iter #   7 total cpu time :    74.0 secs   av.it.:   8.3
      thresh= 4.665E-07 alpha_mix =  0.700 |ddv_scf|^2 =  1.572E-12

      iter #   8 total cpu time :    75.2 secs   av.it.:   8.2
      thresh= 1.254E-07 alpha_mix =  0.700 |ddv_scf|^2 =  1.616E-13

      iter #   9 total cpu time :    76.4 secs   av.it.:   7.8
      thresh= 4.020E-08 alpha_mix =  0.700 |ddv_scf|^2 =  1.722E-13

      iter #  10 total cpu time :    77.5 secs   av.it.:   7.5
      thresh= 4.150E-08 alpha_mix =  0.700 |ddv_scf|^2 =  1.864E-14

      iter #  11 total cpu time :    78.5 secs   av.it.:   7.5
      thresh= 1.365E-08 alpha_mix =  0.700 |ddv_scf|^2 =  2.832E-16

     End of self-consistent calculation

     Convergence has been achieved 


     Representation #  3 mode #   3

     Self-consistent Calculation

      iter #   1 total cpu time :    79.5 secs   av.it.:   5.3
      thresh= 1.000E-02 alpha_mix =  0.700 |ddv_scf|^2 =  5.467E-05

      iter #   2 total cpu time :    80.7 secs   av.it.:   8.4
      thresh= 7.394E-04 alpha_mix =  0.700 |ddv_scf|^2 =  1.412E-04

      iter #   3 total cpu time :    81.8 secs   av.it.:   7.3
      thresh= 1.188E-03 alpha_mix =  0.700 |ddv_scf|^2 =  1.320E-06

      iter #   4 total cpu time :    82.9 secs   av.it.:   7.7
      thresh= 1.149E-04 alpha_mix =  0.700 |ddv_scf|^2 =  3.264E-09

      iter #   5 total cpu time :    84.1 secs   av.it.:   8.3
      thresh= 5.713E-06 alpha_mix =  0.700 |ddv_scf|^2 =  3.412E-10

      iter #   6 total cpu time :    85.3 secs   av.it.:   8.1
      thresh= 1.847E-06 alpha_mix =  0.700 |ddv_scf|^2 =  1.308E-11

      iter #   7 total cpu time :    86.5 secs   av.it.:   8.2
      thresh= 3.616E-07 alpha_mix =  0.700 |ddv_scf|^2 =  8.011E-13

      iter #   8 total cpu time :    87.6 secs   av.it.:   8.4
      thresh= 8.951E-08 alpha_mix =  0.700 |ddv_scf|^2 =  4.366E-13

      iter #   9 total cpu time :    88.7 secs   av.it.:   7.5
      thresh= 6.608E-08 alpha_mix =  0.700 |ddv_scf|^2 =  1.636E-13

      iter #  10 total cpu time :    89.8 secs   av.it.:   7.6
      thresh= 4.044E-08 alpha_mix =  0.700 |ddv_scf|^2 =  2.552E-14

      iter #  11 total cpu time :    90.9 secs   av.it.:   7.7
      thresh= 1.597E-08 alpha_mix =  0.700 |ddv_scf|^2 =  2.773E-16

     End of self-consistent calculation

     Convergence has been achieved 


     Representation #  4 mode #   4

     Self-consistent Calculation

      iter #   1 total cpu time :    91.9 secs   av.it.:   5.2
      thresh= 1.000E-02 alpha_mix =  0.700 |ddv_scf|^2 =  1.803E-05

      iter #   2 total cpu time :    93.1 secs   av.it.:   8.5
      thresh= 4.246E-04 alpha_mix =  0.700 |ddv_scf|^2 =  3.178E-05

      iter #   3 total cpu time :    94.2 secs   av.it.:   7.4
      thresh= 5.638E-04 alpha_mix =  0.700 |ddv_scf|^2 =  1.050E-06

      iter #   4 total cpu time :    95.2 secs   av.it.:   7.7
      thresh= 1.025E-04 alpha_mix =  0.700 |ddv_scf|^2 =  9.788E-09

      iter #   5 total cpu time :    96.4 secs   av.it.:   8.1
      thresh= 9.893E-06 alpha_mix =  0.700 |ddv_scf|^2 =  6.012E-10

      iter #   6 total cpu time :    97.6 secs   av.it.:   8.1
      thresh= 2.452E-06 alpha_mix =  0.700 |ddv_scf|^2 =  1.638E-11

      iter #   7 total cpu time :    98.7 secs   av.it.:   8.3
      thresh= 4.047E-07 alpha_mix =  0.700 |ddv_scf|^2 =  1.412E-12

      iter #   8 total cpu time :    99.9 secs   av.it.:   8.2
      thresh= 1.188E-07 alpha_mix =  0.700 |ddv_scf|^2 =  2.031E-13

      iter #   9 total cpu time :   101.0 secs   av.it.:   7.8
      thresh= 4.506E-08 alpha_mix =  0.700 |ddv_scf|^2 =  1.176E-13

      iter #  10 total cpu time :   102.1 secs   av.it.:   7.7
      thresh= 3.429E-08 alpha_mix =  0.700 |ddv_scf|^2 =  1.215E-14

      iter #  11 total cpu time :   103.2 secs   av.it.:   7.9
      thresh= 1.102E-08 alpha_mix =  0.700 |ddv_scf|^2 =  4.260E-16

     End of self-consistent calculation

     Convergence has been achieved 


     Representation #  5 mode #   5

     Self-consistent Calculation

      iter #   1 total cpu time :   104.2 secs   av.it.:   5.1
      thresh= 1.000E-02 alpha_mix =  0.700 |ddv_scf|^2 =  3.460E-06

[...]
        k(   46) = (  -0.8750000  -0.3750000  -0.1250000), wk =   0.0000000
        k(   47) = (  -0.8750000  -0.3750000  -0.1250000), wk =   0.0625000
        k(   48) = (  -1.3750000  -1.3750000  -0.1250000), wk =   0.0000000
        k(   49) = (   0.8750000   0.3750000   0.1250000), wk =   0.0625000
        k(   50) = (   0.3750000  -0.6250000   0.1250000), wk =   0.0000000
        k(   51) = (  -0.1250000  -0.3750000   0.8750000), wk =   0.0625000
        k(   52) = (  -0.6250000  -1.3750000   0.8750000), wk =   0.0000000
        k(   53) = (   0.3750000   0.8750000   0.1250000), wk =   0.0625000
        k(   54) = (  -0.1250000  -0.1250000   0.1250000), wk =   0.0000000
        k(   55) = (  -0.3750000   0.8750000  -0.1250000), wk =   0.0625000
        k(   56) = (  -0.8750000  -0.1250000  -0.1250000), wk =   0.0000000
        k(   57) = (  -0.6250000  -0.6250000  -0.1250000), wk =   0.0625000
        k(   58) = (  -1.1250000  -1.6250000  -0.1250000), wk =   0.0000000
        k(   59) = (   0.6250000   0.6250000   0.1250000), wk =   0.0625000
        k(   60) = (   0.1250000  -0.3750000   0.1250000), wk =   0.0000000
        k(   61) = (  -0.6250000  -0.3750000  -0.3750000), wk =   0.0625000
        k(   62) = (  -1.1250000  -1.3750000  -0.3750000), wk =   0.0000000
        k(   63) = (  -0.3750000  -0.3750000   0.6250000), wk =   0.0625000
        k(   64) = (  -0.8750000  -1.3750000   0.6250000), wk =   0.0000000

     Dense  grid:     2277 G-vectors     FFT dimensions: (  20,  20,  20)

     Estimated max dynamical RAM per process >       0.25 MB

     Estimated total dynamical RAM >       2.01 MB

     The potential is recalculated from file :
     ./out/_ph0/Si.save/charge-density

     Starting wfcs are    8 atomic wfcs

     Band Structure Calculation
     Davidson diagonalization with overlap

     ethr =  1.25E-10,  avg # of iterations = 11.4

     total cpu time spent up to now is        9.0 secs

     End of band structure calculation

          k = 0.1250 0.1250 0.1250 (   295 PWs)   bands (ev):

    -5.5991   4.6524   5.9601   5.9601

          k =-0.3750-0.8750 0.1250 (   283 PWs)   bands (ev):

    -2.2583  -0.6913   2.0848   3.2152

          k = 0.1250 0.1250 0.3750 (   293 PWs)   bands (ev):

    -5.0461   3.0247   4.9038   4.9946

          k =-0.3750-0.8750 0.3750 (   286 PWs)   bands (ev):

    -2.8126  -0.4288   2.1661   4.3260

          k = 0.1250 0.1250 0.6250 (   289 PWs)   bands (ev):

    -3.9779   1.3239   3.5204   3.9946

          k =-0.3750-0.8750 0.6250 (   288 PWs)   bands (ev):

    -3.5383   0.3849   2.8610   4.2772

          k = 0.1250 0.1250 0.8750 (   286 PWs)   bands (ev):

    -2.4499  -0.5803   2.7288   3.5105

          k =-0.3750-0.8750 0.8750 (   289 PWs)   bands (ev):

    -3.9779   1.3239   3.5204   3.9946

          k = 0.1250 0.3750 0.3750 (   292 PWs)   bands (ev):

    -4.5266   1.6005   3.8940   5.4660

          k =-0.3750-0.6250 0.3750 (   281 PWs)   bands (ev):

    -3.3195  -0.5726   3.9395   4.6600

          k = 0.1250 0.3750 0.6250 (   288 PWs)   bands (ev):

    -3.5383   0.3849   2.8610   4.2772

          k =-0.3750-0.6250 0.6250 (   281 PWs)   bands (ev):

    -3.3195  -0.5726   3.9395   4.6600

          k = 0.1250 0.3750 0.8750 (   283 PWs)   bands (ev):

    -2.2583  -0.6913   2.0848   3.2152

          k =-0.3750-0.6250 0.8750 (   288 PWs)   bands (ev):

    -3.5383   0.3849   2.8610   4.2772

          k = 0.1250 0.6250 0.6250 (   286 PWs)   bands (ev):

    -2.8126  -0.4288   2.1661   4.3260

          k =-0.3750-0.3750 0.6250 (   281 PWs)   bands (ev):

    -3.3195  -0.5726   3.9395   4.6600

          k = 0.3750 0.3750 0.3750 (   281 PWs)   bands (ev):

    -4.0665   0.2415   5.1458   5.1458

          k =-0.1250-0.6250 0.3750 (   288 PWs)   bands (ev):

    -3.5383   0.3849   2.8610   4.2772

          k = 0.3750 0.3750 0.6250 (   281 PWs)   bands (ev):

    -3.3195  -0.5726   3.9395   4.6600

          k =-0.1250-0.6250 0.6250 (   286 PWs)   bands (ev):

    -2.8126  -0.4288   2.1661   4.3260

          k =-0.3750-0.1250-0.1250 (   293 PWs)   bands (ev):

    -5.0461   3.0247   4.9038   4.9946

          k =-0.8750-1.1250-0.1250 (   286 PWs)   bands (ev):

    -2.4499  -0.5803   2.7288   3.5105

          k =-0.1250-0.1250 0.3750 (   293 PWs)   bands (ev):

    -5.0461   3.0247   4.9038   4.9946

          k =-0.6250-1.1250 0.3750 (   288 PWs)   bands (ev):

    -3.5383   0.3849   2.8610   4.2772

          k =-0.6250-0.1250-0.1250 (   289 PWs)   bands (ev):

    -3.9779   1.3239   3.5204   3.9946

          k =-1.1250-1.1250-0.1250 (   286 PWs)   bands (ev):

    -2.4499  -0.5803   2.7288   3.5105

          k =-0.1250-0.1250 0.6250 (   289 PWs)   bands (ev):

    -3.9779   1.3239   3.5204   3.9946

          k =-0.6250-1.1250 0.6250 (   292 PWs)   bands (ev):

    -4.5266   1.6005   3.8940   5.4660

          k =-0.8750-0.1250-0.1250 (   286 PWs)   bands (ev):

    -2.4499  -0.5803   2.7288   3.5105

          k =-1.3750-1.1250-0.1250 (   283 PWs)   bands (ev):

    -2.2583  -0.6913   2.0848   3.2152

          k =-0.1250-0.1250 0.8750 (   286 PWs)   bands (ev):

    -2.4499  -0.5803   2.7288   3.5105

          k =-0.6250-1.1250 0.8750 (   293 PWs)   bands (ev):

    -5.0461   3.0247   4.9038   4.9946

          k =-0.3750-0.3750-0.1250 (   292 PWs)   bands (ev):

    -4.5266   1.6005   3.8940   5.4660

          k =-0.8750-1.3750-0.1250 (   283 PWs)   bands (ev):

    -2.2583  -0.6913   2.0848   3.2152

          k = 0.3750 0.3750 0.1250 (   292 PWs)   bands (ev):

    -4.5266   1.6005   3.8940   5.4660

          k =-0.1250-0.6250 0.1250 (   289 PWs)   bands (ev):

    -3.9779   1.3239   3.5204   3.9946

          k =-0.6250-0.3750-0.1250 (   288 PWs)   bands (ev):

    -3.5383   0.3849   2.8610   4.2772

          k =-1.1250-1.3750-0.1250 (   283 PWs)   bands (ev):

    -2.2583  -0.6913   2.0848   3.2152

          k = 0.6250 0.3750 0.1250 (   288 PWs)   bands (ev):

    -3.5383   0.3849   2.8610   4.2772

          k = 0.1250-0.6250 0.1250 (   289 PWs)   bands (ev):

    -3.9779   1.3239   3.5204   3.9946

          k =-0.1250-0.3750 0.6250 (   288 PWs)   bands (ev):

    -3.5383   0.3849   2.8610   4.2772

          k =-0.6250-1.3750 0.6250 (   281 PWs)   bands (ev):

    -4.0665   0.2415   5.1458   5.1458

          k = 0.3750 0.6250 0.1250 (   288 PWs)   bands (ev):

    -3.5383   0.3849   2.8610   4.2772

          k =-0.1250-0.3750 0.1250 (   293 PWs)   bands (ev):

    -5.0461   3.0247   4.9038   4.9946

          k =-0.3750 0.6250-0.1250 (   288 PWs)   bands (ev):

    -3.5383   0.3849   2.8610   4.2772

          k =-0.8750-0.3750-0.1250 (   283 PWs)   bands (ev):

    -2.2583  -0.6913   2.0848   3.2152

          k =-0.8750-0.3750-0.1250 (   283 PWs)   bands (ev):

    -2.2583  -0.6913   2.0848   3.2152

          k =-1.3750-1.3750-0.1250 (   286 PWs)   bands (ev):

    -2.8126  -0.4288   2.1661   4.3260

          k = 0.8750 0.3750 0.1250 (   283 PWs)   bands (ev):

    -2.2583  -0.6913   2.0848   3.2152

          k = 0.3750-0.6250 0.1250 (   288 PWs)   bands (ev):

    -3.5383   0.3849   2.8610   4.2772

          k =-0.1250-0.3750 0.8750 (   283 PWs)   bands (ev):

    -2.2583  -0.6913   2.0848   3.2152

          k =-0.6250-1.3750 0.8750 (   292 PWs)   bands (ev):

    -4.5266   1.6005   3.8940   5.4660

          k = 0.3750 0.8750 0.1250 (   283 PWs)   bands (ev):

    -2.2583  -0.6913   2.0848   3.2152

          k =-0.1250-0.1250 0.1250 (   295 PWs)   bands (ev):

    -5.5991   4.6524   5.9601   5.9601

          k =-0.3750 0.8750-0.1250 (   283 PWs)   bands (ev):

    -2.2583  -0.6913   2.0848   3.2152

          k =-0.8750-0.1250-0.1250 (   286 PWs)   bands (ev):

    -2.4499  -0.5803   2.7288   3.5105

          k =-0.6250-0.6250-0.1250 (   286 PWs)   bands (ev):

    -2.8126  -0.4288   2.1661   4.3260

          k =-1.1250-1.6250-0.1250 (   283 PWs)   bands (ev):

    -2.2583  -0.6913   2.0848   3.2152

          k = 0.6250 0.6250 0.1250 (   286 PWs)   bands (ev):

    -2.8126  -0.4288   2.1661   4.3260

          k = 0.1250-0.3750 0.1250 (   293 PWs)   bands (ev):

    -5.0461   3.0247   4.9038   4.9946

          k =-0.6250-0.3750-0.3750 (   281 PWs)   bands (ev):

    -3.3195  -0.5726   3.9395   4.6600

          k =-1.1250-1.3750-0.3750 (   288 PWs)   bands (ev):

    -3.5383   0.3849   2.8610   4.2772

          k =-0.3750-0.3750 0.6250 (   281 PWs)   bands (ev):

    -3.3195  -0.5726   3.9395   4.6600

          k =-0.8750-1.3750 0.6250 (   292 PWs)   bands (ev):

    -4.5266   1.6005   3.8940   5.4660

     highest occupied level (ev):     5.9601

     Writing output data file Si.save/

     Phonons on a uniform q-grid                                                

     bravais-lattice index     =            2
     lattice parameter (alat)  =      10.2000  a.u.
     unit-cell volume          =     265.3020 (a.u.)^3
     number of atoms/cell      =            2
     number of atomic types    =            1
     kinetic-energy cut-off    =      16.0000  Ry
     charge density cut-off    =      64.0000  Ry
     convergence threshold     =      1.0E-14
     beta                      =       0.7000
     number of iterations used =            4
     Exchange-correlation      = PZ ( 1  1  0  0 0 0)


     celldm(1)=   10.20000  celldm(2)=    0.00000  celldm(3)=    0.00000
     celldm(4)=    0.00000  celldm(5)=    0.00000  celldm(6)=    0.00000

     crystal axes: (cart. coord. in units of alat)
               a(1) = ( -0.5000  0.0000  0.5000 )  
               a(2) = (  0.0000  0.5000  0.5000 )  
               a(3) = ( -0.5000  0.5000  0.0000 )  

     reciprocal axes: (cart. coord. in units 2 pi/alat)
               b(1) = ( -1.0000 -1.0000  1.0000 )  
               b(2) = (  1.0000  1.0000  1.0000 )  
               b(3) = ( -1.0000  1.0000 -1.0000 )  


     Atoms inside the unit cell: 

     Cartesian axes

     site n.  atom      mass           positions (alat units)
        1     Si  28.0855   tau(    1) = (    0.00000    0.00000    0.00000  )
        2     Si  28.0855   tau(    2) = (    0.25000    0.25000    0.25000  )

     Computing dynamical matrix for 
                    q = (  -0.5000000  -1.0000000   0.0000000 )
 
      8 Sym.Ops. (no q -> -q+G )


     G cutoff =  168.6633  (    285 G-vectors)     FFT grid: ( 20, 20, 20)
     number of k points=    64

     PseudoPot. # 1 for Si read from file:
     ./Si.vbc.UPF
     MD5 check sum: bcd8ae23180a2f07cc8655fe7dcd9644
     Pseudo is Norm-conserving, Zval =  4.0
     Generated by new atomic code, or converted to UPF format
     Using radial grid of  431 points,  2 beta functions with: 
                l(1) =   0
                l(2) =   1


     Atomic displacements:
     There are   3 irreducible representations

     Representation     1      2 modes -  To be done

     Representation     2      2 modes -  To be done

     Representation     3      2 modes -  To be done



     Alpha used in Ewald sum =   0.7000
     PHONON       :   1m55.02s CPU   2m29.25s WALL



     Representation #  1 modes #   1  2

     Self-consistent Calculation

      iter #   1 total cpu time :   149.9 secs   av.it.:   5.3
      thresh= 1.000E-02 alpha_mix =  0.700 |ddv_scf|^2 =  7.255E-06

      iter #   2 total cpu time :   150.5 secs   av.it.:   9.3
      thresh= 2.694E-04 alpha_mix =  0.700 |ddv_scf|^2 =  9.273E-06

      iter #   3 total cpu time :   151.0 secs   av.it.:   8.6
      thresh= 3.045E-04 alpha_mix =  0.700 |ddv_scf|^2 =  1.132E-09

      iter #   4 total cpu time :   151.6 secs   av.it.:   8.9
      thresh= 3.365E-06 alpha_mix =  0.700 |ddv_scf|^2 =  2.084E-11

      iter #   5 total cpu time :   152.2 secs   av.it.:   8.8
      thresh= 4.566E-07 alpha_mix =  0.700 |ddv_scf|^2 =  8.316E-14

      iter #   6 total cpu time :   152.7 secs   av.it.:   8.6
      thresh= 2.884E-08 alpha_mix =  0.700 |ddv_scf|^2 =  1.484E-15

     End of self-consistent calculation

     Convergence has been achieved 


     Representation #  2 modes #   3  4

     Self-consistent Calculation

      iter #   1 total cpu time :   153.2 secs   av.it.:   5.3
      thresh= 1.000E-02 alpha_mix =  0.700 |ddv_scf|^2 =  3.436E-06

      iter #   2 total cpu time :   153.8 secs   av.it.:   9.3
      thresh= 1.854E-04 alpha_mix =  0.700 |ddv_scf|^2 =  2.166E-06

      iter #   3 total cpu time :   154.4 secs   av.it.:   8.7
      thresh= 1.472E-04 alpha_mix =  0.700 |ddv_scf|^2 =  1.584E-10

      iter #   4 total cpu time :   154.9 secs   av.it.:   8.8
      thresh= 1.259E-06 alpha_mix =  0.700 |ddv_scf|^2 =  1.131E-11

      iter #   5 total cpu time :   155.5 secs   av.it.:   8.9
      thresh= 3.363E-07 alpha_mix =  0.700 |ddv_scf|^2 =  2.189E-14

      iter #   6 total cpu time :   156.1 secs   av.it.:   9.3
      thresh= 1.479E-08 alpha_mix =  0.700 |ddv_scf|^2 =  2.259E-16

     End of self-consistent calculation

     Convergence has been achieved 


     Representation #  3 modes #   5  6

     Self-consistent Calculation

      iter #   1 total cpu time :   156.6 secs   av.it.:   5.3
      thresh= 1.000E-02 alpha_mix =  0.700 |ddv_scf|^2 =  4.142E-06

      iter #   2 total cpu time :   157.2 secs   av.it.:   9.2
      thresh= 2.035E-04 alpha_mix =  0.700 |ddv_scf|^2 =  2.682E-06

      iter #   3 total cpu time :   157.7 secs   av.it.:   8.7
      thresh= 1.638E-04 alpha_mix =  0.700 |ddv_scf|^2 =  1.393E-10

      iter #   4 total cpu time :   158.3 secs   av.it.:   8.9
      thresh= 1.180E-06 alpha_mix =  0.700 |ddv_scf|^2 =  1.673E-11

      iter #   5 total cpu time :   158.8 secs   av.it.:   8.9
      thresh= 4.090E-07 alpha_mix =  0.700 |ddv_scf|^2 =  1.047E-14

      iter #   6 total cpu time :   159.4 secs   av.it.:   9.3
      thresh= 1.023E-08 alpha_mix =  0.700 |ddv_scf|^2 =  2.323E-16

     End of self-consistent calculation

     Convergence has been achieved 
 
     Number of q in the star =    6
     List of q in the star:
          1  -0.500000000  -1.000000000   0.000000000
          2   0.000000000   1.000000000   0.500000000
          3   0.000000000  -1.000000000  -0.500000000
          4   0.500000000   1.000000000   0.000000000
          5  -1.000000000  -0.500000000   0.000000000
          6   0.000000000  -0.500000000  -1.000000000

     Diagonalizing the dynamical matrix

     q = (   -0.500000000  -1.000000000   0.000000000 ) 

 **************************************************************************
     freq (    1) =       6.109534 [THz] =     203.792106 [cm-1]
     freq (    2) =       6.109534 [THz] =     203.792106 [cm-1]
     freq (    3) =      10.706342 [THz] =     357.125126 [cm-1]
     freq (    4) =      10.706342 [THz] =     357.125126 [cm-1]
     freq (    5) =      14.140444 [THz] =     471.674433 [cm-1]
     freq (    6) =      14.140444 [THz] =     471.674433 [cm-1]
 **************************************************************************
 
     init_run     :      0.06s CPU      0.13s WALL (       7 calls)
     electrons    :      7.23s CPU      8.62s WALL (       7 calls)

     Called by init_run:
     wfcinit      :      0.00s CPU      0.02s WALL (       7 calls)
     potinit      :      0.01s CPU      0.02s WALL (       7 calls)
     hinit0       :      0.04s CPU      0.04s WALL (       7 calls)

     Called by electrons:
     c_bands      :      7.23s CPU      8.58s WALL (       7 calls)
     v_of_rho     :      0.00s CPU      0.00s WALL (       8 calls)

     Called by c_bands:
     init_us_2    :      0.31s CPU      0.39s WALL (   19266 calls)
     cegterg      :      6.26s CPU      7.41s WALL (     796 calls)

     Called by sum_band:

     Called by *egterg:
     h_psi        :     76.49s CPU     93.85s WALL (  176636 calls)
     g_psi        :      0.05s CPU      0.06s WALL (    9074 calls)
     cdiaghg      :      0.94s CPU      1.11s WALL (    9870 calls)

     Called by h_psi:
     h_psi:pot    :     75.68s CPU     92.85s WALL (  176636 calls)
     h_psi:calbec :      5.98s CPU      7.33s WALL (  176636 calls)
     vloc_psi     :     66.24s CPU     81.31s WALL (  176636 calls)
     add_vuspsi   :      1.88s CPU      2.34s WALL (  176636 calls)

     General routines
     calbec       :      9.94s CPU     12.51s WALL (  356508 calls)
     fft          :      0.10s CPU      0.13s WALL (     996 calls)
     ffts         :      0.17s CPU      0.22s WALL (    2700 calls)
     fftw         :     74.25s CPU     91.47s WALL ( 1565852 calls)
     davcio       :      0.84s CPU      1.23s WALL (   89996 calls)
 
     Parallel routines
     fft_scatt_xy :      6.54s CPU      7.92s WALL ( 1569548 calls)
     fft_scatt_yz :     28.18s CPU     35.56s WALL ( 1569548 calls)
 
     PHONON       :   2m 2.67s CPU   2m39.56s WALL

     INITIALIZATION: 
     phq_setup    :      0.05s CPU      0.18s WALL (       8 calls)
     phq_init     :      0.23s CPU      0.42s WALL (       8 calls)
 
     phq_init     :      0.23s CPU      0.42s WALL (       8 calls)
     init_vloc    :      0.00s CPU      0.00s WALL (       8 calls)
     init_us_1    :      0.02s CPU      0.02s WALL (       8 calls)
 
     DYNAMICAL MATRIX:
     dynmat0      :      0.13s CPU      0.23s WALL (       8 calls)
     phqscf       :    113.10s CPU    146.45s WALL (       8 calls)
     dynmatrix    :      0.02s CPU      0.18s WALL (       8 calls)
 
     phqscf       :    113.10s CPU    146.45s WALL (       8 calls)
     solve_linter :    112.53s CPU    144.88s WALL (      32 calls)
     drhodv       :      0.48s CPU      0.80s WALL (      32 calls)
 
     dynmat0      :      0.13s CPU      0.23s WALL (       8 calls)
     dynmat_us    :      0.12s CPU      0.16s WALL (       8 calls)
     d2ionq       :      0.00s CPU      0.00s WALL (       8 calls)
 
     dynmat_us    :      0.12s CPU      0.16s WALL (       8 calls)
 
     phqscf       :    113.10s CPU    146.45s WALL (       8 calls)
     solve_linter :    112.53s CPU    144.88s WALL (      32 calls)
 
     solve_linter :    112.53s CPU    144.88s WALL (      32 calls)
     dvqpsi_us    :      1.37s CPU      1.69s WALL (    2508 calls)
     ortho        :      0.68s CPU      0.84s WALL (   18278 calls)
     cgsolve      :     91.89s CPU    113.28s WALL (   18278 calls)
     incdrhoscf   :      7.77s CPU      9.72s WALL (   18248 calls)
     vpsifft      :      7.32s CPU      8.98s WALL (   15650 calls)
     dv_of_drho   :      0.10s CPU      0.12s WALL (     321 calls)
     mix_pot      :      0.30s CPU      3.27s WALL (     225 calls)
     psymdvscf    :      2.02s CPU      2.05s WALL (     220 calls)
 
     dvqpsi_us    :      1.37s CPU      1.69s WALL (    2508 calls)
     dvqpsi_us_on :      0.09s CPU      0.10s WALL (    2508 calls)
 
     cgsolve      :     91.89s CPU    113.28s WALL (   18278 calls)
     ch_psi       :     84.39s CPU    103.84s WALL (  165970 calls)
 
     ch_psi       :     84.39s CPU    103.84s WALL (  165970 calls)
     h_psi        :     76.49s CPU     93.85s WALL (  176636 calls)
     last         :     10.01s CPU     12.43s WALL (  165970 calls)
 
     h_psi        :     76.49s CPU     93.85s WALL (  176636 calls)
     add_vuspsi   :      1.88s CPU      2.34s WALL (  176636 calls)
 
     incdrhoscf   :      7.77s CPU      9.72s WALL (   18248 calls)
 
 
      General routines
     calbec       :      9.94s CPU     12.51s WALL (  356508 calls)
     fft          :      0.10s CPU      0.13s WALL (     996 calls)
     ffts         :      0.17s CPU      0.22s WALL (    2700 calls)
     fftw         :     74.25s CPU     91.47s WALL ( 1565852 calls)
     davcio       :      0.84s CPU      1.23s WALL (   89996 calls)
     write_rec    :      0.38s CPU      4.67s WALL (     257 calls)
 
 
     PHONON       :   2m 2.67s CPU   2m39.56s WALL

 
   This run was terminated on:  21:34:26  30Aug2019            

=------------------------------------------------------------------------------=
   JOB DONE.
=------------------------------------------------------------------------------=
