
     Program PWSCF v.6.4.1 starts on 30Aug2019 at 21:25: 8 

     This program is part of the open-source Quantum ESPRESSO suite
     for quantum simulation of materials; please cite
         "P. Giannozzi et al., J. Phys.:Condens. Matter 21 395502 (2009);
         "P. Giannozzi et al., J. Phys.:Condens. Matter 29 465901 (2017);
          URL http://www.quantum-espresso.org", 
     in publications or presentations arising from this work. More details at
     http://www.quantum-espresso.org/quote

     Parallel version (MPI), running on     8 processors

     MPI processes distributed on     1 nodes
     R & G space division:  proc/nbgrp/npool/nimage =       8
     Waiting for input...
     Reading input from standard input
     Message from routine read_cards :
     DEPRECATED: no units specified in ATOMIC_POSITIONS card
     Message from routine read_cards :
     ATOMIC_POSITIONS: units set to alat

     Current dimensions of program PWSCF are:
     Max number of different atomic species (ntypx) = 10
     Max number of k-points (npk) =  40000
     Max angular momentum in pseudopotentials (lmaxx) =  3

     Subspace diagonalization in iterative solution of the eigenvalue problem:
     a serial algorithm will be used

 
     Parallelization info
     --------------------
     sticks:   dense  smooth     PW     G-vecs:    dense   smooth      PW
     Min          29      29      9                  284      284      51
     Max          30      30     10                  285      285      52
     Sum         235     235     73                 2277     2277     411
 


     bravais-lattice index     =            2
     lattice parameter (alat)  =      10.2000  a.u.
     unit-cell volume          =     265.3020 (a.u.)^3
     number of atoms/cell      =            2
     number of atomic types    =            1
     number of electrons       =         8.00
     number of Kohn-Sham states=            4
     kinetic-energy cutoff     =      16.0000  Ry
     charge density cutoff     =      64.0000  Ry
     convergence threshold     =      1.0E-08
     mixing beta               =       0.7000
     number of iterations used =            8  plain     mixing
     Exchange-correlation      =  SLA  PZ   NOGX NOGC ( 1  1  0  0 0 0)

     celldm(1)=  10.200000  celldm(2)=   0.000000  celldm(3)=   0.000000
     celldm(4)=   0.000000  celldm(5)=   0.000000  celldm(6)=   0.000000

     crystal axes: (cart. coord. in units of alat)
               a(1) = (  -0.500000   0.000000   0.500000 )  
               a(2) = (   0.000000   0.500000   0.500000 )  
               a(3) = (  -0.500000   0.500000   0.000000 )  

     reciprocal axes: (cart. coord. in units 2 pi/alat)
               b(1) = ( -1.000000 -1.000000  1.000000 )  
               b(2) = (  1.000000  1.000000  1.000000 )  
               b(3) = ( -1.000000  1.000000 -1.000000 )  


     PseudoPot. # 1 for Si read from file:
     ./Si.vbc.UPF
     MD5 check sum: bcd8ae23180a2f07cc8655fe7dcd9644
     Pseudo is Norm-conserving, Zval =  4.0
     Generated by new atomic code, or converted to UPF format
     Using radial grid of  431 points,  2 beta functions with: 
                l(1) =   0
                l(2) =   1

     atomic species   valence    mass     pseudopotential
        Si             4.00    28.08550     Si( 1.00)

     48 Sym. Ops., with inversion, found (24 have fractional translation)



   Cartesian axes

     site n.     atom                  positions (alat units)
         1           Si  tau(   1) = (   0.0000000   0.0000000   0.0000000  )
         2           Si  tau(   2) = (   0.2500000   0.2500000   0.2500000  )

     number of k points=    10
                       cart. coord. in units 2pi/alat
        k(    1) = (   0.1250000   0.1250000   0.1250000), wk =   0.0625000
        k(    2) = (   0.1250000   0.1250000   0.3750000), wk =   0.1875000
        k(    3) = (   0.1250000   0.1250000   0.6250000), wk =   0.1875000
        k(    4) = (   0.1250000   0.1250000   0.8750000), wk =   0.1875000
        k(    5) = (   0.1250000   0.3750000   0.3750000), wk =   0.1875000
        k(    6) = (   0.1250000   0.3750000   0.6250000), wk =   0.3750000
        k(    7) = (   0.1250000   0.3750000   0.8750000), wk =   0.3750000
        k(    8) = (   0.1250000   0.6250000   0.6250000), wk =   0.1875000
        k(    9) = (   0.3750000   0.3750000   0.3750000), wk =   0.0625000
        k(   10) = (   0.3750000   0.3750000   0.6250000), wk =   0.1875000

     Dense  grid:     2277 G-vectors     FFT dimensions: (  20,  20,  20)

     Estimated max dynamical RAM per process >       0.35 MB

     Estimated total dynamical RAM >       2.78 MB

     Initial potential from superposition of free atoms

     starting charge    7.99901, renormalised to    8.00000
     Starting wfcs are    8 randomized atomic wfcs

     total cpu time spent up to now is        0.4 secs

     Self-consistent Calculation

     iteration #  1     ecut=    16.00 Ry     beta= 0.70
     Davidson diagonalization with overlap
     ethr =  1.00E-02,  avg # of iterations =  2.0

     Threshold (ethr) on eigenvalues was too large:
     Diagonalizing with lowered threshold

     Davidson diagonalization with overlap
     ethr =  7.69E-04,  avg # of iterations =  1.0

     total cpu time spent up to now is        0.5 secs

     total energy              =     -15.83563532 Ry
     Harris-Foulkes estimate   =     -15.85652209 Ry
     estimated scf accuracy    <       0.06108004 Ry

     iteration #  2     ecut=    16.00 Ry     beta= 0.70
     Davidson diagonalization with overlap
     ethr =  7.64E-04,  avg # of iterations =  1.0

     total cpu time spent up to now is        0.5 secs

     total energy              =     -15.83870333 Ry
     Harris-Foulkes estimate   =     -15.83901285 Ry
     estimated scf accuracy    <       0.00213923 Ry

     iteration #  3     ecut=    16.00 Ry     beta= 0.70
     Davidson diagonalization with overlap
     ethr =  2.67E-05,  avg # of iterations =  2.5

     total cpu time spent up to now is        0.6 secs

     total energy              =     -15.83915028 Ry
     Harris-Foulkes estimate   =     -15.83918165 Ry
     estimated scf accuracy    <       0.00006932 Ry

     iteration #  4     ecut=    16.00 Ry     beta= 0.70
     Davidson diagonalization with overlap
     ethr =  8.66E-07,  avg # of iterations =  2.3

     total cpu time spent up to now is        0.6 secs

     total energy              =     -15.83916649 Ry
     Harris-Foulkes estimate   =     -15.83916930 Ry
     estimated scf accuracy    <       0.00000633 Ry

     iteration #  5     ecut=    16.00 Ry     beta= 0.70
     Davidson diagonalization with overlap
     ethr =  7.91E-08,  avg # of iterations =  2.0

     total cpu time spent up to now is        0.6 secs

     total energy              =     -15.83916742 Ry
     Harris-Foulkes estimate   =     -15.83916744 Ry
     estimated scf accuracy    <       0.00000005 Ry

     iteration #  6     ecut=    16.00 Ry     beta= 0.70
     Davidson diagonalization with overlap
     ethr =  5.70E-10,  avg # of iterations =  2.7

     total cpu time spent up to now is        0.7 secs

     End of self-consistent calculation

          k = 0.1250 0.1250 0.1250 (   295 PWs)   bands (ev):

    -5.5991   4.6523   5.9601   5.9601

          k = 0.1250 0.1250 0.3750 (   293 PWs)   bands (ev):

    -5.0461   3.0246   4.9038   4.9945

          k = 0.1250 0.1250 0.6250 (   289 PWs)   bands (ev):

    -3.9779   1.3238   3.5203   3.9946

          k = 0.1250 0.1250 0.8750 (   286 PWs)   bands (ev):

    -2.4500  -0.5804   2.7288   3.5105

          k = 0.1250 0.3750 0.3750 (   292 PWs)   bands (ev):

    -4.5266   1.6005   3.8940   5.4660

          k = 0.1250 0.3750 0.6250 (   288 PWs)   bands (ev):

    -3.5383   0.3848   2.8609   4.2772

          k = 0.1250 0.3750 0.8750 (   283 PWs)   bands (ev):

    -2.2584  -0.6914   2.0848   3.2152

          k = 0.1250 0.6250 0.6250 (   286 PWs)   bands (ev):

    -2.8127  -0.4288   2.1660   4.3260

          k = 0.3750 0.3750 0.3750 (   281 PWs)   bands (ev):

    -4.0665   0.2415   5.1458   5.1458

          k = 0.3750 0.3750 0.6250 (   281 PWs)   bands (ev):

    -3.3196  -0.5727   3.9394   4.6599

     highest occupied level (ev):     5.9601

!    total energy              =     -15.83916744 Ry
     Harris-Foulkes estimate   =     -15.83916744 Ry
     estimated scf accuracy    <          8.6E-10 Ry

     The total energy is the sum of the following terms:

     one-electron contribution =       4.79867799 Ry
     hartree contribution      =       1.07532761 Ry
     xc contribution           =      -4.81341447 Ry
     ewald contribution        =     -16.89975858 Ry

     convergence has been achieved in   6 iterations

     Writing output data file Si.save/
 
     init_run     :      0.03s CPU      0.21s WALL (       1 calls)
     electrons    :      0.16s CPU      0.22s WALL (       1 calls)

     Called by init_run:
     wfcinit      :      0.02s CPU      0.11s WALL (       1 calls)
     potinit      :      0.00s CPU      0.01s WALL (       1 calls)
     hinit0       :      0.01s CPU      0.06s WALL (       1 calls)

     Called by electrons:
     c_bands      :      0.14s CPU      0.18s WALL (       7 calls)
     sum_band     :      0.02s CPU      0.02s WALL (       7 calls)
     v_of_rho     :      0.00s CPU      0.00s WALL (       7 calls)
     mix_rho      :      0.00s CPU      0.00s WALL (       7 calls)

     Called by c_bands:
     init_us_2    :      0.00s CPU      0.00s WALL (     150 calls)
     cegterg      :      0.14s CPU      0.17s WALL (      70 calls)

     Called by sum_band:

     Called by *egterg:
     h_psi        :      0.11s CPU      0.17s WALL (     215 calls)
     g_psi        :      0.00s CPU      0.00s WALL (     135 calls)
     cdiaghg      :      0.02s CPU      0.08s WALL (     195 calls)

     Called by h_psi:
     h_psi:pot    :      0.11s CPU      0.17s WALL (     215 calls)
     h_psi:calbec :      0.01s CPU      0.04s WALL (     215 calls)
     vloc_psi     :      0.10s CPU      0.12s WALL (     215 calls)
     add_vuspsi   :      0.00s CPU      0.00s WALL (     215 calls)

     General routines
     calbec       :      0.01s CPU      0.04s WALL (     215 calls)
     fft          :      0.00s CPU      0.05s WALL (      21 calls)
     ffts         :      0.00s CPU      0.00s WALL (       7 calls)
     fftw         :      0.10s CPU      0.13s WALL (    1950 calls)
 
     Parallel routines
     fft_scatt_xy :      0.01s CPU      0.01s WALL (    1978 calls)
     fft_scatt_yz :      0.04s CPU      0.06s WALL (    1978 calls)
 
     PWSCF        :      0.26s CPU      0.78s WALL

 
   This run was terminated on:  21:25: 8  30Aug2019            

=------------------------------------------------------------------------------=
   JOB DONE.
=------------------------------------------------------------------------------=
