### Running on host: assam

     Program PROJWFC v.6.4.1 starts on 14Sep2019 at 15:48:30 

     This program is part of the open-source Quantum ESPRESSO suite
     for quantum simulation of materials; please cite
         "P. Giannozzi et al., J. Phys.:Condens. Matter 21 395502 (2009);
         "P. Giannozzi et al., J. Phys.:Condens. Matter 29 465901 (2017);
          URL http://www.quantum-espresso.org", 
     in publications or presentations arising from this work. More details at
     http://www.quantum-espresso.org/quote

     Parallel version (MPI), running on     2 processors

     MPI processes distributed on     1 nodes
     R & G space division:  proc/nbgrp/npool/nimage =       2

     Reading data from directory:
     /tmp/fe.save/

     IMPORTANT: XC functional enforced from input :
     Exchange-correlation      = PBE ( 1  4  3  4 0 0)
     Any further DFT definition will be discarded
     Please, verify this is what you really want

               file Fe.pbe-nd-rrkjus.UPF: wavefunction(s)  4S renormalized

     Parallelization info
     --------------------
     sticks:   dense  smooth     PW     G-vecs:    dense   smooth      PW
     Min         166      84     31                 1902      704     160
     Max         167      85     32                 1903      705     161
     Sum         333     169     63                 3805     1409     321

     Generating pointlists ...
     new r_m :   0.3572 (alat units)  1.9362 (a.u.) for type    1

     Check: negative core charge=   -0.000022

     Linear tetrahedron method (read from file) 
     [opt_tetra]  Linear tetrahedron method is used.

     Calling projwave .... 

     Atomic states used for projection
     (read from pseudopotential files):

     state #   1: atom   1 (Fe ), wfc  1 (l=0 m= 1)
     state #   2: atom   1 (Fe ), wfc  2 (l=2 m= 1)
     state #   3: atom   1 (Fe ), wfc  2 (l=2 m= 2)
     state #   4: atom   1 (Fe ), wfc  2 (l=2 m= 3)
     state #   5: atom   1 (Fe ), wfc  2 (l=2 m= 4)
     state #   6: atom   1 (Fe ), wfc  2 (l=2 m= 5)

 k =   0.0000000000  0.0000000000  0.0833333333
==== e(   1) =     4.88432 eV ==== 
     psi = 0.998*[#   1]+
    |psi|^2 = 0.998
==== e(   2) =    10.61043 eV ==== 
     psi = 0.333*[#   3]+0.333*[#   4]+0.333*[#   6]+
    |psi|^2 = 1.000
==== e(   3) =    10.61043 eV ==== 
     psi = 0.333*[#   3]+0.333*[#   4]+0.333*[#   6]+
    |psi|^2 = 1.000
==== e(   4) =    10.64815 eV ==== 
     psi = 0.333*[#   3]+0.333*[#   4]+0.333*[#   6]+
    |psi|^2 = 1.000
==== e(   5) =    11.67872 eV ==== 
     psi = 0.500*[#   2]+0.500*[#   5]+
    |psi|^2 = 0.999
==== e(   6) =    11.76243 eV ==== 
     psi = 0.500*[#   2]+0.500*[#   5]+
    |psi|^2 = 0.999
==== e(   7) =    36.43047 eV ==== 
     psi = 
    |psi|^2 = 0.000
==== e(   8) =    37.17918 eV ==== 
     psi = 
    |psi|^2 = 0.000

 k =   0.0000000000 -0.0833333333  0.1666666667
==== e(   1) =     5.43250 eV ==== 
     psi = 0.991*[#   1]+0.002*[#   2]+0.002*[#   5]+0.001*[#   3]+0.001*[#   4]+
          +0.001*[#   6]+
    |psi|^2 = 0.998
==== e(   2) =    10.48477 eV ==== 
     psi = 0.333*[#   3]+0.333*[#   4]+0.333*[#   6]+
    |psi|^2 = 1.000
==== e(   3) =    10.59276 eV ==== 
     psi = 0.323*[#   3]+0.323*[#   4]+0.323*[#   6]+0.013*[#   2]+0.013*[#   5]+
          +0.004*[#   1]+
    |psi|^2 = 1.000
==== e(   4) =    10.92154 eV ==== 
     psi = 0.333*[#   3]+0.333*[#   4]+0.333*[#   6]+
    |psi|^2 = 1.000
==== e(   5) =    11.53436 eV ==== 
     psi = 0.487*[#   2]+0.487*[#   5]+0.008*[#   3]+0.008*[#   4]+0.008*[#   6]+
    |psi|^2 = 0.999
==== e(   6) =    11.80230 eV ==== 
     psi = 0.497*[#   2]+0.497*[#   5]+0.003*[#   1]+
    |psi|^2 = 0.999
==== e(   7) =    33.97839 eV ==== 
     psi = 
    |psi|^2 = 0.000
==== e(   8) =    36.14038 eV ==== 
     psi = 
    |psi|^2 = 0.000

 k =   0.0000000000 -0.1666666667  0.2500000000
==== e(   1) =     6.43100 eV ==== 
     psi = 0.934*[#   1]+0.014*[#   3]+0.014*[#   4]+0.014*[#   6]+0.011*[#   2]+
          +0.011*[#   5]+
    |psi|^2 = 0.998
==== e(   2) =    10.25324 eV ==== 
     psi = 0.333*[#   3]+0.333*[#   4]+0.333*[#   6]+
    |psi|^2 = 1.000
==== e(   3) =    10.50532 eV ==== 
     psi = 0.254*[#   3]+0.254*[#   4]+0.254*[#   6]+0.092*[#   2]+0.092*[#   5]+
          +0.054*[#   1]+
    |psi|^2 = 1.000
==== e(   4) =    11.44130 eV ==== 
     psi = 0.333*[#   3]+0.333*[#   4]+0.333*[#   6]+
    |psi|^2 = 1.000
==== e(   5) =    11.47267 eV ==== 
     psi = 0.406*[#   2]+0.406*[#   5]+0.062*[#   3]+0.062*[#   4]+0.062*[#   6]+
    |psi|^2 = 0.999
==== e(   6) =    11.84810 eV ==== 
     psi = 0.491*[#   2]+0.491*[#   5]+0.010*[#   1]+0.002*[#   3]+0.002*[#   4]+
          +0.002*[#   6]+
    |psi|^2 = 0.999
==== e(   7) =    30.33354 eV ==== 
     psi = 
    |psi|^2 = 0.000
==== e(   8) =    34.39387 eV ==== 
     psi = 
    |psi|^2 = 0.000

 k =   0.0000000000 -0.2500000000  0.3333333333
==== e(   1) =     7.54600 eV ==== 
     psi = 0.667*[#   1]+0.075*[#   3]+0.075*[#   4]+0.075*[#   6]+0.052*[#   2]+
          +0.052*[#   5]+
    |psi|^2 = 0.997
==== e(   2) =     9.99437 eV ==== 
     psi = 0.333*[#   3]+0.333*[#   4]+0.333*[#   6]+
    |psi|^2 = 1.000
==== e(   3) =    10.58534 eV ==== 
     psi = 0.268*[#   1]+0.179*[#   2]+0.179*[#   5]+0.123*[#   3]+0.123*[#   4]+
          +0.123*[#   6]+
    |psi|^2 = 0.996
==== e(   4) =    11.59803 eV ==== 
     psi = 0.290*[#   2]+0.290*[#   5]+0.135*[#   3]+0.135*[#   4]+0.135*[#   6]+
          +0.015*[#   1]+
    |psi|^2 = 0.999
==== e(   5) =    11.92045 eV ==== 
     psi = 0.478*[#   2]+0.478*[#   5]+0.042*[#   1]+
    |psi|^2 = 0.998
==== e(   6) =    12.09130 eV ==== 
     psi = 0.333*[#   3]+0.333*[#   4]+0.333*[#   6]+
    |psi|^2 = 0.999
==== e(   7) =    26.50836 eV ==== 
     psi = 0.006*[#   1]+
    |psi|^2 = 0.006
==== e(   8) =    32.76694 eV ==== 
     psi = 
    |psi|^2 = 0.000

 k =   0.0000000000 -0.3333333333  0.4166666667
==== e(   1) =     8.11705 eV ==== 
     psi = 0.230*[#   1]+0.166*[#   3]+0.166*[#   4]+0.166*[#   6]+0.134*[#   2]+
          +0.134*[#   5]+
    |psi|^2 = 0.995
==== e(   2) =     9.77726 eV ==== 
     psi = 0.333*[#   3]+0.333*[#   4]+0.333*[#   6]+
    |psi|^2 = 1.000
==== e(   3) =    11.22514 eV ==== 
     psi = 0.339*[#   2]+0.339*[#   5]+0.289*[#   1]+0.001*[#   3]+0.001*[#   4]+
          +0.001*[#   6]+
    |psi|^2 = 0.971
==== e(   4) =    11.78832 eV ==== 
     psi = 0.305*[#   2]+0.305*[#   5]+0.125*[#   3]+0.125*[#   4]+0.125*[#   6]+
          +0.013*[#   1]+
    |psi|^2 = 0.996
==== e(   5) =    12.32297 eV ==== 
     psi = 0.394*[#   1]+0.221*[#   2]+0.221*[#   5]+0.040*[#   3]+0.040*[#   4]+
          +0.040*[#   6]+
    |psi|^2 = 0.956
==== e(   6) =    12.70794 eV ==== 
     psi = 0.333*[#   3]+0.333*[#   4]+0.333*[#   6]+
    |psi|^2 = 0.999
==== e(   7) =    22.98481 eV ==== 
     psi = 0.072*[#   1]+0.002*[#   3]+0.002*[#   4]+0.002*[#   6]+
    |psi|^2 = 0.077
==== e(   8) =    31.56059 eV ==== 
     psi = 
    |psi|^2 = 0.000

 k =   0.0000000000 -0.4166666667  0.5000000000
==== e(   1) =     8.18912 eV ==== 
     psi = 0.195*[#   3]+0.195*[#   4]+0.195*[#   6]+0.176*[#   2]+0.176*[#   5]+
          +0.063*[#   1]+
    |psi|^2 = 0.998
==== e(   2) =     9.65472 eV ==== 
     psi = 0.333*[#   3]+0.333*[#   4]+0.333*[#   6]+
    |psi|^2 = 1.000
==== e(   3) =    11.61168 eV ==== 
     psi = 0.445*[#   2]+0.445*[#   5]+0.029*[#   1]+0.013*[#   3]+0.013*[#   4]+
          +0.013*[#   6]+
    |psi|^2 = 0.957
==== e(   4) =    11.79173 eV ==== 
     psi = 0.340*[#   2]+0.340*[#   5]+0.105*[#   3]+0.105*[#   4]+0.105*[#   6]+
    |psi|^2 = 0.995
==== e(   5) =    13.09216 eV ==== 
     psi = 0.333*[#   3]+0.333*[#   4]+0.333*[#   6]+
    |psi|^2 = 0.999
==== e(   6) =    13.57739 eV ==== 
     psi = 0.286*[#   1]+0.036*[#   2]+0.036*[#   5]+0.010*[#   3]+0.010*[#   4]+
          +0.010*[#   6]+
    |psi|^2 = 0.389
==== e(   7) =    20.39255 eV ==== 
     psi = 0.613*[#   1]+0.011*[#   3]+0.011*[#   4]+0.011*[#   6]+0.002*[#   2]+
          +0.002*[#   5]+
    |psi|^2 = 0.649
==== e(   8) =    30.92268 eV ==== 
     psi = 
    |psi|^2 = 0.000

 k =  -0.0833333333  0.0833333333  0.0833333333
==== e(   1) =     5.16157 eV ==== 
     psi = 0.996*[#   1]+
    |psi|^2 = 0.998
==== e(   2) =    10.52926 eV ==== 
     psi = 0.331*[#   3]+0.331*[#   4]+0.331*[#   6]+0.004*[#   2]+0.004*[#   5]+
    |psi|^2 = 1.000
==== e(   3) =    10.52926 eV ==== 
     psi = 0.331*[#   3]+0.331*[#   4]+0.331*[#   6]+0.004*[#   2]+0.004*[#   5]+
    |psi|^2 = 1.000
==== e(   4) =    10.86666 eV ==== 
     psi = 0.332*[#   3]+0.332*[#   4]+0.332*[#   6]+0.002*[#   1]+
    |psi|^2 = 1.000
==== e(   5) =    11.69810 eV ==== 
     psi = 0.496*[#   2]+0.496*[#   5]+0.002*[#   3]+0.002*[#   4]+0.002*[#   6]+
    |psi|^2 = 0.999
==== e(   6) =    11.69810 eV ==== 
     psi = 0.496*[#   2]+0.496*[#   5]+0.002*[#   3]+0.002*[#   4]+0.002*[#   6]+
    |psi|^2 = 0.999
==== e(   7) =    35.49319 eV ==== 
     psi = 
    |psi|^2 = 0.000
==== e(   8) =    35.49319 eV ==== 
     psi = 
    |psi|^2 = 0.000

 k =  -0.0833333333 -0.0833333333  0.2500000000
==== e(   1) =     6.20262 eV ==== 
     psi = 0.960*[#   1]+0.010*[#   2]+0.010*[#   5]+0.007*[#   3]+0.007*[#   4]+
          +0.007*[#   6]+
    |psi|^2 = 0.998
==== e(   2) =    10.41721 eV ==== 
     psi = 0.328*[#   3]+0.328*[#   4]+0.328*[#   6]+0.010*[#   1]+0.002*[#   2]+
          +0.002*[#   5]+
    |psi|^2 = 1.000
==== e(   3) =    10.46598 eV ==== 
     psi = 0.295*[#   3]+0.295*[#   4]+0.295*[#   6]+0.057*[#   2]+0.057*[#   5]+
    |psi|^2 = 1.000
==== e(   4) =    11.29940 eV ==== 
     psi = 0.329*[#   3]+0.329*[#   4]+0.329*[#   6]+0.012*[#   1]+
    |psi|^2 = 1.000
==== e(   5) =    11.36619 eV ==== 
     psi = 0.443*[#   2]+0.443*[#   5]+0.038*[#   3]+0.038*[#   4]+0.038*[#   6]+
    |psi|^2 = 0.999
==== e(   6) =    11.89392 eV ==== 
     psi = 0.487*[#   2]+0.487*[#   5]+0.017*[#   1]+0.002*[#   3]+0.002*[#   4]+
          +0.002*[#   6]+
    |psi|^2 = 0.999
==== e(   7) =    31.96170 eV ==== 
     psi = 
    |psi|^2 = 0.000
==== e(   8) =    33.32954 eV ==== 
     psi = 
    |psi|^2 = 0.000

 k =  -0.0833333333 -0.1666666667  0.3333333333
==== e(   1) =     7.29041 eV ==== 
     psi = 0.815*[#   1]+0.037*[#   2]+0.037*[#   5]+0.036*[#   3]+0.036*[#   4]+
          +0.036*[#   6]+
    |psi|^2 = 0.998
==== e(   2) =    10.17704 eV ==== 
     psi = 0.296*[#   3]+0.296*[#   4]+0.296*[#   6]+0.057*[#   2]+0.057*[#   5]+
    |psi|^2 = 1.000
==== e(   3) =    10.34536 eV ==== 
     psi = 0.239*[#   3]+0.239*[#   4]+0.239*[#   6]+0.107*[#   2]+0.107*[#   5]+
          +0.070*[#   1]+
    |psi|^2 = 0.999
==== e(   4) =    11.38031 eV ==== 
     psi = 0.333*[#   2]+0.333*[#   5]+0.110*[#   3]+0.110*[#   4]+0.110*[#   6]+
          +0.002*[#   1]+
    |psi|^2 = 0.999
==== e(   5) =    11.88498 eV ==== 
     psi = 0.232*[#   3]+0.232*[#   4]+0.232*[#   6]+0.151*[#   2]+0.151*[#   5]+
          +0.002*[#   1]+
    |psi|^2 = 0.999
==== e(   6) =    12.05949 eV ==== 
     psi = 0.315*[#   2]+0.315*[#   5]+0.108*[#   1]+0.087*[#   3]+0.087*[#   4]+
          +0.087*[#   6]+
    |psi|^2 = 0.998
==== e(   7) =    28.60518 eV ==== 
     psi = 0.001*[#   1]+
    |psi|^2 = 0.001
==== e(   8) =    31.24630 eV ==== 
     psi = 
    |psi|^2 = 0.001

 k =  -0.0833333333 -0.2500000000  0.4166666667
==== e(   1) =     8.17332 eV ==== 
     psi = 0.409*[#   1]+0.124*[#   3]+0.124*[#   4]+0.124*[#   6]+0.107*[#   2]+
          +0.107*[#   5]+
    |psi|^2 = 0.996
==== e(   2) =     9.93918 eV ==== 
     psi = 0.308*[#   3]+0.308*[#   4]+0.308*[#   6]+0.037*[#   2]+0.037*[#   5]+
          +0.001*[#   1]+
    |psi|^2 = 1.000
==== e(   3) =    10.50147 eV ==== 
     psi = 0.229*[#   2]+0.229*[#   5]+0.217*[#   1]+0.106*[#   3]+0.106*[#   4]+
          +0.106*[#   6]+
    |psi|^2 = 0.992
==== e(   4) =    11.58450 eV ==== 
     psi = 0.251*[#   2]+0.251*[#   5]+0.162*[#   3]+0.162*[#   4]+0.162*[#   6]+
          +0.011*[#   1]+
    |psi|^2 = 0.999
==== e(   5) =    12.12219 eV ==== 
     psi = 0.320*[#   2]+0.320*[#   5]+0.096*[#   3]+0.096*[#   4]+0.096*[#   6]+
          +0.070*[#   1]+
    |psi|^2 = 0.997
==== e(   6) =    12.85546 eV ==== 
     psi = 0.269*[#   1]+0.204*[#   3]+0.204*[#   4]+0.204*[#   6]+0.054*[#   2]+
          +0.054*[#   5]+
    |psi|^2 = 0.990
==== e(   7) =    24.89977 eV ==== 
     psi = 0.019*[#   1]+
    |psi|^2 = 0.021
==== e(   8) =    29.91584 eV ==== 
     psi = 0.001*[#   1]+
    |psi|^2 = 0.002

 k =  -0.0833333333 -0.3333333333  0.5000000000
==== e(   1) =     8.39756 eV ==== 
     psi = 0.182*[#   3]+0.182*[#   4]+0.182*[#   6]+0.173*[#   2]+0.173*[#   5]+
          +0.106*[#   1]+
    |psi|^2 = 0.997
==== e(   2) =     9.78997 eV ==== 
     psi = 0.326*[#   3]+0.326*[#   4]+0.326*[#   6]+0.011*[#   2]+0.011*[#   5]+
    |psi|^2 = 1.000
==== e(   3) =    10.93605 eV ==== 
     psi = 0.375*[#   2]+0.375*[#   5]+0.112*[#   1]+0.034*[#   3]+0.034*[#   4]+
          +0.034*[#   6]+
    |psi|^2 = 0.962
==== e(   4) =    11.71173 eV ==== 
     psi = 0.292*[#   2]+0.292*[#   5]+0.138*[#   3]+0.138*[#   4]+0.138*[#   6]+
    |psi|^2 = 0.997
==== e(   5) =    12.54760 eV ==== 
     psi = 0.226*[#   3]+0.226*[#   4]+0.226*[#   6]+0.113*[#   2]+0.113*[#   5]+
          +0.071*[#   1]+
    |psi|^2 = 0.976
==== e(   6) =    14.06884 eV ==== 
     psi = 0.479*[#   1]+0.090*[#   3]+0.090*[#   4]+0.090*[#   6]+0.034*[#   2]+
          +0.034*[#   5]+
    |psi|^2 = 0.818
==== e(   7) =    21.65954 eV ==== 
     psi = 0.224*[#   1]+0.004*[#   3]+0.004*[#   4]+0.004*[#   6]+
    |psi|^2 = 0.238
==== e(   8) =    29.05009 eV ==== 
     psi = 0.004*[#   1]+
    |psi|^2 = 0.004

 k =  -0.0833333333  0.5833333333 -0.4166666667
==== e(   1) =     8.39329 eV ==== 
     psi = 0.191*[#   2]+0.191*[#   5]+0.191*[#   3]+0.191*[#   4]+0.191*[#   6]+
          +0.044*[#   1]+
    |psi|^2 = 1.000
==== e(   2) =     9.73711 eV ==== 
     psi = 0.330*[#   3]+0.330*[#   4]+0.330*[#   6]+0.005*[#   2]+0.005*[#   5]+
    |psi|^2 = 1.000
==== e(   3) =    11.11940 eV ==== 
     psi = 0.427*[#   2]+0.427*[#   5]+0.024*[#   3]+0.024*[#   4]+0.024*[#   6]+
    |psi|^2 = 0.928
==== e(   4) =    11.71163 eV ==== 
     psi = 0.301*[#   2]+0.301*[#   5]+0.131*[#   3]+0.131*[#   4]+0.131*[#   6]+
          +0.005*[#   1]+
    |psi|^2 = 0.999
==== e(   5) =    12.79315 eV ==== 
     psi = 0.279*[#   3]+0.279*[#   4]+0.279*[#   6]+0.056*[#   2]+0.056*[#   5]+
    |psi|^2 = 0.947
==== e(   6) =    15.03799 eV ==== 
     psi = 0.030*[#   3]+0.030*[#   4]+0.030*[#   6]+0.017*[#   2]+0.017*[#   5]+
    |psi|^2 = 0.124
==== e(   7) =    20.01441 eV ==== 
     psi = 0.934*[#   1]+0.014*[#   3]+0.014*[#   4]+0.014*[#   6]+0.003*[#   2]+
          +0.003*[#   5]+
    |psi|^2 = 0.982
==== e(   8) =    28.74177 eV ==== 
     psi = 0.008*[#   1]+
    |psi|^2 = 0.008

 k =  -0.1666666667  0.1666666667  0.0833333333
==== e(   1) =     5.95235 eV ==== 
     psi = 0.973*[#   1]+0.008*[#   3]+0.008*[#   4]+0.008*[#   6]+0.001*[#   2]+
          +0.001*[#   5]+
    |psi|^2 = 0.998
==== e(   2) =    10.32154 eV ==== 
     psi = 0.328*[#   3]+0.328*[#   4]+0.328*[#   6]+0.008*[#   2]+0.008*[#   5]+
    |psi|^2 = 1.000
==== e(   3) =    10.43544 eV ==== 
     psi = 0.305*[#   3]+0.305*[#   4]+0.305*[#   6]+0.038*[#   2]+0.038*[#   5]+
          +0.008*[#   1]+
    |psi|^2 = 1.000
==== e(   4) =    11.31804 eV ==== 
     psi = 0.327*[#   3]+0.327*[#   4]+0.327*[#   6]+0.017*[#   1]+0.001*[#   2]+
          +0.001*[#   5]+
    |psi|^2 = 1.000
==== e(   5) =    11.59760 eV ==== 
     psi = 0.459*[#   2]+0.459*[#   5]+0.027*[#   3]+0.027*[#   4]+0.027*[#   6]+
    |psi|^2 = 0.999
==== e(   6) =    11.74310 eV ==== 
     psi = 0.492*[#   2]+0.492*[#   5]+0.005*[#   3]+0.005*[#   4]+0.005*[#   6]+
    |psi|^2 = 0.999
==== e(   7) =    32.20948 eV ==== 
     psi = 
    |psi|^2 = 0.000
==== e(   8) =    34.00249 eV ==== 
     psi = 
    |psi|^2 = 0.000

 k =  -0.1666666667 -0.1666666667  0.4166666667
==== e(   1) =     8.25087 eV ==== 
     psi = 0.538*[#   1]+0.095*[#   3]+0.095*[#   4]+0.095*[#   6]+0.087*[#   2]+
          +0.087*[#   5]+
    |psi|^2 = 0.996
==== e(   2) =     9.91271 eV ==== 
     psi = 0.220*[#   2]+0.220*[#   5]+0.186*[#   3]+0.186*[#   4]+0.186*[#   6]+
    |psi|^2 = 1.000
==== e(   3) =    10.29140 eV ==== 
     psi = 0.295*[#   3]+0.295*[#   4]+0.295*[#   6]+0.095*[#   1]+0.010*[#   2]+
          +0.010*[#   5]+
    |psi|^2 = 0.999
==== e(   4) =    11.42901 eV ==== 
     psi = 0.280*[#   2]+0.280*[#   5]+0.147*[#   3]+0.147*[#   4]+0.147*[#   6]+
    |psi|^2 = 0.999
==== e(   5) =    12.06685 eV ==== 
     psi = 0.341*[#   2]+0.341*[#   5]+0.096*[#   3]+0.096*[#   4]+0.096*[#   6]+
          +0.031*[#   1]+
    |psi|^2 = 0.999
==== e(   6) =    12.96300 eV ==== 
     psi = 0.325*[#   1]+0.181*[#   3]+0.181*[#   4]+0.181*[#   6]+0.062*[#   2]+
          +0.062*[#   5]+
    |psi|^2 = 0.993
==== e(   7) =    26.88282 eV ==== 
     psi = 
    |psi|^2 = 0.000
==== e(   8) =    27.67623 eV ==== 
     psi = 0.009*[#   1]+
    |psi|^2 = 0.010

 k =  -0.1666666667 -0.2500000000  0.5000000000
==== e(   1) =     8.77829 eV ==== 
     psi = 0.179*[#   1]+0.178*[#   3]+0.178*[#   4]+0.178*[#   6]+0.142*[#   2]+
          +0.142*[#   5]+
    |psi|^2 = 0.995
==== e(   2) =     9.75819 eV ==== 
     psi = 0.207*[#   3]+0.207*[#   4]+0.207*[#   6]+0.185*[#   2]+0.185*[#   5]+
          +0.007*[#   1]+
    |psi|^2 = 0.998
==== e(   3) =    10.38263 eV ==== 
     psi = 0.193*[#   3]+0.193*[#   4]+0.193*[#   6]+0.154*[#   2]+0.154*[#   5]+
          +0.102*[#   1]+
    |psi|^2 = 0.990
==== e(   4) =    11.61232 eV ==== 
     psi = 0.246*[#   2]+0.246*[#   5]+0.169*[#   3]+0.169*[#   4]+0.169*[#   6]+
    |psi|^2 = 0.999
==== e(   5) =    12.23666 eV ==== 
     psi = 0.241*[#   2]+0.241*[#   5]+0.156*[#   3]+0.156*[#   4]+0.156*[#   6]+
          +0.048*[#   1]+
    |psi|^2 = 0.996
==== e(   6) =    14.38934 eV ==== 
     psi = 0.583*[#   1]+0.096*[#   3]+0.096*[#   4]+0.096*[#   6]+0.031*[#   2]+
          +0.031*[#   5]+
    |psi|^2 = 0.933
==== e(   7) =    23.61888 eV ==== 
     psi = 0.054*[#   1]+0.001*[#   3]+0.001*[#   4]+0.001*[#   6]+
    |psi|^2 = 0.058
==== e(   8) =    26.26172 eV ==== 
     psi = 0.023*[#   1]+
    |psi|^2 = 0.024

 k =  -0.1666666667  0.6666666667 -0.4166666667
==== e(   1) =     8.80788 eV ==== 
     psi = 0.194*[#   3]+0.194*[#   4]+0.194*[#   6]+0.186*[#   2]+0.186*[#   5]+
          +0.045*[#   1]+
    |psi|^2 = 0.998
==== e(   2) =     9.78471 eV ==== 
     psi = 0.291*[#   3]+0.291*[#   4]+0.291*[#   6]+0.062*[#   2]+0.062*[#   5]+
    |psi|^2 = 0.999
==== e(   3) =    10.48768 eV ==== 
     psi = 0.346*[#   2]+0.346*[#   5]+0.084*[#   3]+0.084*[#   4]+0.084*[#   6]+
          +0.020*[#   1]+
    |psi|^2 = 0.963
==== e(   4) =    11.72843 eV ==== 
     psi = 0.261*[#   2]+0.261*[#   5]+0.158*[#   3]+0.158*[#   4]+0.158*[#   6]+
          +0.003*[#   1]+
    |psi|^2 = 0.999
==== e(   5) =    12.45403 eV ==== 
     psi = 0.235*[#   3]+0.235*[#   4]+0.235*[#   6]+0.133*[#   2]+0.133*[#   5]+
          +0.011*[#   1]+
    |psi|^2 = 0.983
==== e(   6) =    16.14288 eV ==== 
     psi = 0.312*[#   1]+0.029*[#   3]+0.029*[#   4]+0.029*[#   6]+0.010*[#   2]+
          +0.010*[#   5]+
    |psi|^2 = 0.422
==== e(   7) =    20.74366 eV ==== 
     psi = 0.540*[#   1]+0.007*[#   3]+0.007*[#   4]+0.007*[#   6]+0.001*[#   2]+
          +0.001*[#   5]+
    |psi|^2 = 0.565
==== e(   8) =    25.65710 eV ==== 
     psi = 0.059*[#   1]+
    |psi|^2 = 0.060

 k =  -0.2500000000  0.2500000000  0.0833333333
==== e(   1) =     7.07812 eV ==== 
     psi = 0.842*[#   1]+0.041*[#   3]+0.041*[#   4]+0.041*[#   6]+0.016*[#   2]+
          +0.016*[#   5]+
    |psi|^2 = 0.998
==== e(   2) =    10.06018 eV ==== 
     psi = 0.329*[#   3]+0.329*[#   4]+0.329*[#   6]+0.007*[#   2]+0.007*[#   5]+
    |psi|^2 = 1.000
==== e(   3) =    10.36154 eV ==== 
     psi = 0.233*[#   3]+0.233*[#   4]+0.233*[#   6]+0.101*[#   1]+0.100*[#   2]+
          +0.100*[#   5]+
    |psi|^2 = 0.999
==== e(   4) =    11.60487 eV ==== 
     psi = 0.383*[#   2]+0.383*[#   5]+0.077*[#   3]+0.077*[#   4]+0.077*[#   6]+
          +0.001*[#   1]+
    |psi|^2 = 0.999
==== e(   5) =    11.79790 eV ==== 
     psi = 0.493*[#   2]+0.493*[#   5]+0.004*[#   3]+0.004*[#   4]+0.004*[#   6]+
    |psi|^2 = 0.999
==== e(   6) =    11.96817 eV ==== 
     psi = 0.315*[#   3]+0.315*[#   4]+0.315*[#   6]+0.053*[#   1]+
    |psi|^2 = 0.999
==== e(   7) =    28.42869 eV ==== 
     psi = 0.001*[#   1]+
    |psi|^2 = 0.002
==== e(   8) =    32.48574 eV ==== 
     psi = 
    |psi|^2 = 0.000

 k =  -0.2500000000  0.1666666667  0.1666666667
==== e(   1) =     6.90675 eV ==== 
     psi = 0.900*[#   1]+0.029*[#   3]+0.029*[#   4]+0.029*[#   6]+0.005*[#   2]+
          +0.005*[#   5]+
    |psi|^2 = 0.998
==== e(   2) =    10.15076 eV ==== 
     psi = 0.317*[#   3]+0.317*[#   4]+0.317*[#   6]+0.018*[#   2]+0.018*[#   5]+
          +0.012*[#   1]+
    |psi|^2 = 1.000
==== e(   3) =    10.16898 eV ==== 
     psi = 0.285*[#   3]+0.285*[#   4]+0.285*[#   6]+0.072*[#   2]+0.072*[#   5]+
    |psi|^2 = 1.000
==== e(   4) =    11.58726 eV ==== 
     psi = 0.428*[#   2]+0.428*[#   5]+0.048*[#   3]+0.048*[#   4]+0.048*[#   6]+
    |psi|^2 = 0.999
==== e(   5) =    11.79675 eV ==== 
     psi = 0.470*[#   2]+0.470*[#   5]+0.019*[#   3]+0.019*[#   4]+0.019*[#   6]+
          +0.002*[#   1]+
    |psi|^2 = 0.999
==== e(   6) =    11.97330 eV ==== 
     psi = 0.301*[#   3]+0.301*[#   4]+0.301*[#   6]+0.084*[#   1]+0.006*[#   2]+
          +0.006*[#   5]+
    |psi|^2 = 0.999
==== e(   7) =    30.19820 eV ==== 
     psi = 
    |psi|^2 = 0.000
==== e(   8) =    31.10327 eV ==== 
     psi = 
    |psi|^2 = 0.000

 k =  -0.2500000000  0.7500000000 -0.4166666667
==== e(   1) =     9.20923 eV ==== 
     psi = 0.248*[#   3]+0.248*[#   4]+0.248*[#   6]+0.096*[#   2]+0.096*[#   5]+
          +0.058*[#   1]+
    |psi|^2 = 0.995
==== e(   2) =     9.59564 eV ==== 
     psi = 0.287*[#   2]+0.287*[#   5]+0.141*[#   3]+0.141*[#   4]+0.141*[#   6]+
    |psi|^2 = 0.997
==== e(   3) =    10.21436 eV ==== 
     psi = 0.204*[#   2]+0.204*[#   5]+0.185*[#   3]+0.185*[#   4]+0.185*[#   6]+
          +0.025*[#   1]+
    |psi|^2 = 0.986
==== e(   4) =    11.79500 eV ==== 
     psi = 0.213*[#   2]+0.213*[#   5]+0.191*[#   3]+0.191*[#   4]+0.191*[#   6]+
    |psi|^2 = 0.999
==== e(   5) =    12.26723 eV ==== 
     psi = 0.198*[#   3]+0.198*[#   4]+0.198*[#   6]+0.190*[#   2]+0.190*[#   5]+
          +0.020*[#   1]+
    |psi|^2 = 0.994
==== e(   6) =    16.47055 eV ==== 
     psi = 0.569*[#   1]+0.033*[#   3]+0.033*[#   4]+0.033*[#   6]+0.010*[#   2]+
          +0.010*[#   5]+
    |psi|^2 = 0.687
==== e(   7) =    22.29195 eV ==== 
     psi = 
    |psi|^2 = 0.003
==== e(   8) =    23.34001 eV ==== 
     psi = 0.321*[#   1]+0.002*[#   3]+0.002*[#   4]+0.002*[#   6]+
    |psi|^2 = 0.328

 k =  -0.2500000000  0.6666666667 -0.3333333333
==== e(   1) =     9.28012 eV ==== 
     psi = 0.243*[#   3]+0.243*[#   4]+0.243*[#   6]+0.125*[#   2]+0.125*[#   5]+
          +0.020*[#   1]+
    |psi|^2 = 0.998
==== e(   2) =     9.73356 eV ==== 
     psi = 0.221*[#   3]+0.221*[#   4]+0.221*[#   6]+0.167*[#   2]+0.167*[#   5]+
    |psi|^2 = 0.997
==== e(   3) =    10.00645 eV ==== 
     psi = 0.337*[#   2]+0.337*[#   5]+0.102*[#   3]+0.102*[#   4]+0.102*[#   6]+
    |psi|^2 = 0.980
==== e(   4) =    11.93052 eV ==== 
     psi = 0.207*[#   2]+0.207*[#   5]+0.194*[#   3]+0.194*[#   4]+0.194*[#   6]+
          +0.002*[#   1]+
    |psi|^2 = 0.998
==== e(   5) =    12.24958 eV ==== 
     psi = 0.224*[#   3]+0.224*[#   4]+0.224*[#   6]+0.161*[#   2]+0.161*[#   5]+
    |psi|^2 = 0.992
==== e(   6) =    18.31939 eV ==== 
     psi = 0.007*[#   3]+0.007*[#   4]+0.007*[#   6]+0.002*[#   2]+0.002*[#   5]+
    |psi|^2 = 0.027
==== e(   7) =    20.27577 eV ==== 
     psi = 0.469*[#   1]+0.006*[#   3]+0.006*[#   4]+0.006*[#   6]+
    |psi|^2 = 0.489
==== e(   8) =    22.76334 eV ==== 
     psi = 0.496*[#   1]+0.002*[#   3]+0.002*[#   4]+0.002*[#   6]+
    |psi|^2 = 0.504

 k =  -0.3333333333  0.3333333333  0.0833333333
==== e(   1) =     7.99565 eV ==== 
     psi = 0.429*[#   1]+0.135*[#   3]+0.135*[#   4]+0.135*[#   6]+0.081*[#   2]+
          +0.081*[#   5]+
    |psi|^2 = 0.995
==== e(   2) =     9.81612 eV ==== 
     psi = 0.331*[#   3]+0.331*[#   4]+0.331*[#   6]+0.004*[#   2]+0.004*[#   5]+
    |psi|^2 = 1.000
==== e(   3) =    10.78259 eV ==== 
     psi = 0.392*[#   1]+0.127*[#   3]+0.127*[#   4]+0.127*[#   6]+0.107*[#   2]+
          +0.107*[#   5]+
    |psi|^2 = 0.986
==== e(   4) =    11.71638 eV ==== 
     psi = 0.312*[#   2]+0.312*[#   5]+0.125*[#   3]+0.125*[#   4]+0.125*[#   6]+
          +0.002*[#   1]+
    |psi|^2 = 0.999
==== e(   5) =    11.85359 eV ==== 
     psi = 0.496*[#   2]+0.496*[#   5]+0.002*[#   3]+0.002*[#   4]+0.002*[#   6]+
    |psi|^2 = 0.999
==== e(   6) =    12.74678 eV ==== 
     psi = 0.279*[#   3]+0.279*[#   4]+0.279*[#   6]+0.155*[#   1]+
    |psi|^2 = 0.993
==== e(   7) =    24.71376 eV ==== 
     psi = 0.021*[#   1]+
    |psi|^2 = 0.022
==== e(   8) =    31.20699 eV ==== 
     psi = 
    |psi|^2 = 0.000

 k =  -0.3333333333  0.2500000000  0.1666666667
==== e(   1) =     7.99816 eV ==== 
     psi = 0.643*[#   1]+0.097*[#   3]+0.097*[#   4]+0.097*[#   6]+0.032*[#   2]+
          +0.032*[#   5]+
    |psi|^2 = 0.996
==== e(   2) =     9.89130 eV ==== 
     psi = 0.302*[#   3]+0.302*[#   4]+0.302*[#   6]+0.046*[#   2]+0.046*[#   5]+
    |psi|^2 = 1.000
==== e(   3) =    10.12901 eV ==== 
     psi = 0.249*[#   3]+0.249*[#   4]+0.249*[#   6]+0.108*[#   1]+0.073*[#   2]+
          +0.073*[#   5]+
    |psi|^2 = 0.998
==== e(   4) =    11.63513 eV ==== 
     psi = 0.377*[#   2]+0.377*[#   5]+0.082*[#   3]+0.082*[#   4]+0.082*[#   6]+
    |psi|^2 = 0.999
==== e(   5) =    11.88117 eV ==== 
     psi = 0.466*[#   2]+0.466*[#   5]+0.020*[#   3]+0.020*[#   4]+0.020*[#   6]+
          +0.008*[#   1]+
    |psi|^2 = 0.999
==== e(   6) =    12.85489 eV ==== 
     psi = 0.250*[#   3]+0.250*[#   4]+0.250*[#   6]+0.234*[#   1]+0.005*[#   2]+
          +0.005*[#   5]+
    |psi|^2 = 0.996
==== e(   7) =    26.80564 eV ==== 
     psi = 0.004*[#   1]+
    |psi|^2 = 0.005
==== e(   8) =    29.35637 eV ==== 
     psi = 0.001*[#   1]+
    |psi|^2 = 0.002

 k =  -0.4166666667  0.4166666667  0.0833333333
==== e(   1) =     8.23798 eV ==== 
     psi = 0.195*[#   3]+0.195*[#   4]+0.195*[#   6]+0.149*[#   2]+0.149*[#   5]+
          +0.113*[#   1]+
    |psi|^2 = 0.996
==== e(   2) =     9.64562 eV ==== 
     psi = 0.333*[#   3]+0.333*[#   4]+0.333*[#   6]+
    |psi|^2 = 1.000
==== e(   3) =    11.70172 eV ==== 
     psi = 0.298*[#   2]+0.298*[#   5]+0.127*[#   1]+0.080*[#   3]+0.080*[#   4]+
          +0.080*[#   6]+
    |psi|^2 = 0.965
==== e(   4) =    11.89777 eV ==== 
     psi = 0.499*[#   2]+0.499*[#   5]+
    |psi|^2 = 0.999
==== e(   5) =    11.97517 eV ==== 
     psi = 0.216*[#   3]+0.216*[#   4]+0.216*[#   6]+0.175*[#   1]+0.051*[#   2]+
          +0.051*[#   5]+
    |psi|^2 = 0.924
==== e(   6) =    13.68777 eV ==== 
     psi = 0.346*[#   1]+0.171*[#   3]+0.171*[#   4]+0.171*[#   6]+
    |psi|^2 = 0.860
==== e(   7) =    21.52656 eV ==== 
     psi = 0.232*[#   1]+0.005*[#   3]+0.005*[#   4]+0.005*[#   6]+
    |psi|^2 = 0.247
==== e(   8) =    30.36049 eV ==== 
     psi = 
    |psi|^2 = 0.000

 k =  -0.4166666667  0.3333333333  0.1666666667
==== e(   1) =     8.52810 eV ==== 
     psi = 0.204*[#   1]+0.192*[#   3]+0.192*[#   4]+0.192*[#   6]+0.108*[#   2]+
          +0.108*[#   5]+
    |psi|^2 = 0.996
==== e(   2) =     9.69920 eV ==== 
     psi = 0.319*[#   3]+0.319*[#   4]+0.319*[#   6]+0.021*[#   2]+0.021*[#   5]+
    |psi|^2 = 1.000
==== e(   3) =    10.67189 eV ==== 
     psi = 0.236*[#   1]+0.187*[#   3]+0.187*[#   4]+0.187*[#   6]+0.091*[#   2]+
          +0.091*[#   5]+
    |psi|^2 = 0.977
==== e(   4) =    11.74992 eV ==== 
     psi = 0.332*[#   2]+0.332*[#   5]+0.112*[#   3]+0.112*[#   4]+0.112*[#   6]+
    |psi|^2 = 0.999
==== e(   5) =    11.96019 eV ==== 
     psi = 0.442*[#   2]+0.442*[#   5]+0.031*[#   3]+0.031*[#   4]+0.031*[#   6]+
          +0.019*[#   1]+
    |psi|^2 = 0.998
==== e(   6) =    14.01419 eV ==== 
     psi = 0.465*[#   1]+0.157*[#   3]+0.157*[#   4]+0.157*[#   6]+0.006*[#   2]+
          +0.006*[#   5]+
    |psi|^2 = 0.947
==== e(   7) =    23.28534 eV ==== 
     psi = 0.067*[#   1]+0.001*[#   3]+0.001*[#   4]+0.001*[#   6]+
    |psi|^2 = 0.072
==== e(   8) =    28.29181 eV ==== 
     psi = 0.004*[#   1]+
    |psi|^2 = 0.004

 k =  -0.4166666667  0.2500000000  0.2500000000
==== e(   1) =     8.80345 eV ==== 
     psi = 0.302*[#   1]+0.194*[#   3]+0.194*[#   4]+0.194*[#   6]+0.055*[#   2]+
          +0.055*[#   5]+
    |psi|^2 = 0.994
==== e(   2) =     9.72250 eV ==== 
     psi = 0.237*[#   3]+0.237*[#   4]+0.237*[#   6]+0.145*[#   2]+0.145*[#   5]+
    |psi|^2 = 0.999
==== e(   3) =    10.09972 eV ==== 
     psi = 0.282*[#   3]+0.282*[#   4]+0.282*[#   6]+0.140*[#   1]+0.004*[#   2]+
          +0.004*[#   5]+
    |psi|^2 = 0.995
==== e(   4) =    11.69809 eV ==== 
     psi = 0.355*[#   2]+0.355*[#   5]+0.097*[#   3]+0.097*[#   4]+0.097*[#   6]+
    |psi|^2 = 0.999
==== e(   5) =    11.97814 eV ==== 
     psi = 0.432*[#   2]+0.432*[#   5]+0.039*[#   3]+0.039*[#   4]+0.039*[#   6]+
          +0.017*[#   1]+
    |psi|^2 = 0.998
==== e(   6) =    14.13437 eV ==== 
     psi = 0.504*[#   1]+0.150*[#   3]+0.150*[#   4]+0.150*[#   6]+0.008*[#   2]+
          +0.008*[#   5]+
    |psi|^2 = 0.971
==== e(   7) =    25.24956 eV ==== 
     psi = 
    |psi|^2 = 0.000
==== e(   8) =    26.00071 eV ==== 
     psi = 0.033*[#   1]+
    |psi|^2 = 0.035

 k =   0.5000000000 -0.5000000000  0.0833333333
==== e(   1) =     8.24189 eV ==== 
     psi = 0.205*[#   3]+0.205*[#   4]+0.205*[#   6]+0.169*[#   2]+0.169*[#   5]+
          +0.047*[#   1]+
    |psi|^2 = 1.000
==== e(   2) =     9.58466 eV ==== 
     psi = 0.333*[#   3]+0.333*[#   4]+0.333*[#   6]+
    |psi|^2 = 1.000
==== e(   3) =    11.81739 eV ==== 
     psi = 0.328*[#   2]+0.328*[#   5]+0.113*[#   3]+0.113*[#   4]+0.113*[#   6]+
          +0.004*[#   1]+
    |psi|^2 = 0.999
==== e(   4) =    11.91499 eV ==== 
     psi = 0.500*[#   2]+0.500*[#   5]+
    |psi|^2 = 0.999
==== e(   5) =    12.40551 eV ==== 
     psi = 0.258*[#   3]+0.258*[#   4]+0.258*[#   6]+
    |psi|^2 = 0.774
==== e(   6) =    14.43913 eV ==== 
     psi = 0.075*[#   3]+0.075*[#   4]+0.075*[#   6]+
    |psi|^2 = 0.226
==== e(   7) =    19.96920 eV ==== 
     psi = 0.937*[#   1]+0.015*[#   3]+0.015*[#   4]+0.015*[#   6]+0.003*[#   2]+
          +0.003*[#   5]+
    |psi|^2 = 0.987
==== e(   8) =    30.06491 eV ==== 
     psi = 
    |psi|^2 = 0.000

 k =   0.5000000000 -0.5833333333  0.1666666667
==== e(   1) =     8.55003 eV ==== 
     psi = 0.216*[#   3]+0.216*[#   4]+0.216*[#   6]+0.149*[#   2]+0.149*[#   5]+
          +0.054*[#   1]+
    |psi|^2 = 0.999
==== e(   2) =     9.60083 eV ==== 
     psi = 0.329*[#   3]+0.329*[#   4]+0.329*[#   6]+0.007*[#   2]+0.007*[#   5]+
    |psi|^2 = 1.000
==== e(   3) =    11.26644 eV ==== 
     psi = 0.186*[#   2]+0.186*[#   5]+0.168*[#   3]+0.168*[#   4]+0.168*[#   6]+
          +0.044*[#   1]+
    |psi|^2 = 0.921
==== e(   4) =    11.82349 eV ==== 
     psi = 0.335*[#   2]+0.335*[#   5]+0.109*[#   3]+0.109*[#   4]+0.109*[#   6]+
          +0.002*[#   1]+
    |psi|^2 = 0.999
==== e(   5) =    12.09201 eV ==== 
     psi = 0.318*[#   2]+0.318*[#   5]+0.109*[#   3]+0.109*[#   4]+0.109*[#   6]+
          +0.013*[#   1]+
    |psi|^2 = 0.977
==== e(   6) =    15.39611 eV ==== 
     psi = 0.267*[#   1]+0.060*[#   3]+0.060*[#   4]+0.060*[#   6]+0.003*[#   2]+
          +0.003*[#   5]+
    |psi|^2 = 0.451
==== e(   7) =    20.55984 eV ==== 
     psi = 0.596*[#   1]+0.009*[#   3]+0.009*[#   4]+0.009*[#   6]+0.001*[#   2]+
          +0.001*[#   5]+
    |psi|^2 = 0.626
==== e(   8) =    27.72731 eV ==== 
     psi = 0.012*[#   1]+
    |psi|^2 = 0.012

 k =   0.5000000000 -0.6666666667  0.2500000000
==== e(   1) =     9.00427 eV ==== 
     psi = 0.252*[#   3]+0.252*[#   4]+0.252*[#   6]+0.087*[#   2]+0.087*[#   5]+
          +0.069*[#   1]+
    |psi|^2 = 0.997
==== e(   2) =     9.64594 eV ==== 
     psi = 0.272*[#   3]+0.272*[#   4]+0.272*[#   6]+0.091*[#   2]+0.091*[#   5]+
    |psi|^2 = 0.999
==== e(   3) =    10.42810 eV ==== 
     psi = 0.224*[#   3]+0.224*[#   4]+0.224*[#   6]+0.110*[#   2]+0.110*[#   5]+
          +0.082*[#   1]+
    |psi|^2 = 0.975
==== e(   4) =    11.80788 eV ==== 
     psi = 0.337*[#   2]+0.337*[#   5]+0.108*[#   3]+0.108*[#   4]+0.108*[#   6]+
    |psi|^2 = 0.999
==== e(   5) =    12.05346 eV ==== 
     psi = 0.369*[#   2]+0.369*[#   5]+0.081*[#   3]+0.081*[#   4]+0.081*[#   6]+
          +0.015*[#   1]+
    |psi|^2 = 0.996
==== e(   6) =    15.86035 eV ==== 
     psi = 0.580*[#   1]+0.059*[#   3]+0.059*[#   4]+0.059*[#   6]+0.005*[#   2]+
          +0.005*[#   5]+
    |psi|^2 = 0.768
==== e(   7) =    22.20908 eV ==== 
     psi = 0.164*[#   1]+0.002*[#   3]+0.002*[#   4]+0.002*[#   6]+
    |psi|^2 = 0.171
==== e(   8) =    24.87248 eV ==== 
     psi = 0.080*[#   1]+
    |psi|^2 = 0.082

 k =   0.4166666667 -0.5833333333  0.2500000000
==== e(   1) =     8.98131 eV ==== 
     psi = 0.252*[#   3]+0.252*[#   4]+0.252*[#   6]+0.107*[#   2]+0.107*[#   5]+
          +0.030*[#   1]+
    |psi|^2 = 0.999
==== e(   2) =     9.63353 eV ==== 
     psi = 0.298*[#   3]+0.298*[#   4]+0.298*[#   6]+0.052*[#   2]+0.052*[#   5]+
    |psi|^2 = 0.999
==== e(   3) =    10.60926 eV ==== 
     psi = 0.198*[#   3]+0.198*[#   4]+0.198*[#   6]+0.180*[#   2]+0.180*[#   5]+
    |psi|^2 = 0.953
==== e(   4) =    11.86319 eV ==== 
     psi = 0.339*[#   2]+0.339*[#   5]+0.106*[#   3]+0.106*[#   4]+0.106*[#   6]+
          +0.002*[#   1]+
    |psi|^2 = 0.999
==== e(   5) =    12.09686 eV ==== 
     psi = 0.318*[#   2]+0.318*[#   5]+0.119*[#   3]+0.119*[#   4]+0.119*[#   6]+
    |psi|^2 = 0.991
==== e(   6) =    17.26979 eV ==== 
     psi = 0.017*[#   3]+0.017*[#   4]+0.017*[#   6]+0.002*[#   2]+0.002*[#   5]+
    |psi|^2 = 0.055
==== e(   7) =    20.25067 eV ==== 
     psi = 0.815*[#   1]+0.010*[#   3]+0.010*[#   4]+0.010*[#   6]+0.001*[#   2]+
          +0.001*[#   5]+
    |psi|^2 = 0.847
==== e(   8) =    24.56936 eV ==== 
     psi = 0.134*[#   1]+
    |psi|^2 = 0.136

 k =   0.4166666667 -0.6666666667  0.3333333333
==== e(   1) =     9.23870 eV ==== 
     psi = 0.318*[#   3]+0.318*[#   4]+0.318*[#   6]+0.018*[#   1]+0.014*[#   2]+
          +0.014*[#   5]+
    |psi|^2 = 0.999
==== e(   2) =     9.76430 eV ==== 
     psi = 0.217*[#   3]+0.217*[#   4]+0.217*[#   6]+0.172*[#   2]+0.172*[#   5]+
    |psi|^2 = 0.993
==== e(   3) =    10.15900 eV ==== 
     psi = 0.220*[#   3]+0.220*[#   4]+0.220*[#   6]+0.155*[#   2]+0.155*[#   5]+
          +0.010*[#   1]+
    |psi|^2 = 0.979
==== e(   4) =    11.91816 eV ==== 
     psi = 0.327*[#   2]+0.327*[#   5]+0.115*[#   3]+0.115*[#   4]+0.115*[#   6]+
    |psi|^2 = 0.999
==== e(   5) =    12.04350 eV ==== 
     psi = 0.329*[#   2]+0.329*[#   5]+0.112*[#   3]+0.112*[#   4]+0.112*[#   6]+
          +0.002*[#   1]+
    |psi|^2 = 0.996
==== e(   6) =    18.15081 eV ==== 
     psi = 0.261*[#   1]+0.014*[#   3]+0.014*[#   4]+0.014*[#   6]+0.002*[#   2]+
          +0.002*[#   5]+
    |psi|^2 = 0.306
==== e(   7) =    20.93509 eV ==== 
     psi = 0.002*[#   3]+0.002*[#   4]+0.002*[#   6]+
    |psi|^2 = 0.007
==== e(   8) =    22.44394 eV ==== 
     psi = 0.689*[#   1]+0.003*[#   3]+0.003*[#   4]+0.003*[#   6]+
    |psi|^2 = 0.698

 k =   0.0000000000  0.0000000000  0.2500000000
==== e(   1) =     5.95728 eV ==== 
     psi = 0.976*[#   1]+0.011*[#   2]+0.011*[#   5]+
    |psi|^2 = 0.999
==== e(   2) =    10.63952 eV ==== 
     psi = 0.333*[#   3]+0.333*[#   4]+0.333*[#   6]+
    |psi|^2 = 1.000
==== e(   3) =    10.63952 eV ==== 
     psi = 0.333*[#   3]+0.333*[#   4]+0.333*[#   6]+
    |psi|^2 = 1.000
==== e(   4) =    10.93269 eV ==== 
     psi = 0.333*[#   3]+0.333*[#   4]+0.333*[#   6]+
    |psi|^2 = 1.000
==== e(   5) =    11.22082 eV ==== 
     psi = 0.500*[#   2]+0.500*[#   5]+
    |psi|^2 = 0.999
==== e(   6) =    11.94281 eV ==== 
     psi = 0.488*[#   2]+0.488*[#   5]+0.023*[#   1]+
    |psi|^2 = 0.999
==== e(   7) =    33.31901 eV ==== 
     psi = 
    |psi|^2 = 0.000
==== e(   8) =    35.18399 eV ==== 
     psi = 
    |psi|^2 = 0.000

 k =   0.0000000000 -0.0833333333  0.3333333333
==== e(   1) =     6.90082 eV ==== 
     psi = 0.896*[#   1]+0.041*[#   2]+0.041*[#   5]+0.007*[#   3]+0.007*[#   4]+
          +0.007*[#   6]+
    |psi|^2 = 0.998
==== e(   2) =    10.51303 eV ==== 
     psi = 0.333*[#   3]+0.333*[#   4]+0.333*[#   6]+
    |psi|^2 = 1.000
==== e(   3) =    10.53931 eV ==== 
     psi = 0.209*[#   3]+0.209*[#   4]+0.209*[#   6]+0.178*[#   2]+0.178*[#   5]+
          +0.017*[#   1]+
    |psi|^2 = 1.000
==== e(   4) =    11.07722 eV ==== 
     psi = 0.322*[#   2]+0.322*[#   5]+0.117*[#   3]+0.117*[#   4]+0.117*[#   6]+
          +0.004*[#   1]+
    |psi|^2 = 0.999
==== e(   5) =    11.37920 eV ==== 
     psi = 0.333*[#   3]+0.333*[#   4]+0.333*[#   6]+
    |psi|^2 = 1.000
==== e(   6) =    12.09009 eV ==== 
     psi = 0.459*[#   2]+0.459*[#   5]+0.081*[#   1]+
    |psi|^2 = 0.999
==== e(   7) =    30.66161 eV ==== 
     psi = 
    |psi|^2 = 0.000
==== e(   8) =    33.31983 eV ==== 
     psi = 
    |psi|^2 = 0.000

 k =   0.0000000000 -0.1666666667  0.4166666667
==== e(   1) =     7.93204 eV ==== 
     psi = 0.616*[#   1]+0.109*[#   2]+0.109*[#   5]+0.054*[#   3]+0.054*[#   4]+
          +0.054*[#   6]+
    |psi|^2 = 0.997
==== e(   2) =    10.28470 eV ==== 
     psi = 0.342*[#   2]+0.342*[#   5]+0.088*[#   1]+0.076*[#   3]+0.076*[#   4]+
          +0.076*[#   6]+
    |psi|^2 = 0.998
==== e(   3) =    10.29014 eV ==== 
     psi = 0.333*[#   3]+0.333*[#   4]+0.333*[#   6]+
    |psi|^2 = 1.000
==== e(   4) =    11.34378 eV ==== 
     psi = 0.200*[#   3]+0.200*[#   4]+0.200*[#   6]+0.188*[#   2]+0.188*[#   5]+
          +0.025*[#   1]+
    |psi|^2 = 0.999
==== e(   5) =    12.03141 eV ==== 
     psi = 0.333*[#   3]+0.333*[#   4]+0.333*[#   6]+
    |psi|^2 = 0.999
==== e(   6) =    12.38890 eV ==== 
     psi = 0.361*[#   2]+0.361*[#   5]+0.264*[#   1]+0.003*[#   3]+0.003*[#   4]+
          +0.003*[#   6]+
    |psi|^2 = 0.996
==== e(   7) =    26.90248 eV ==== 
     psi = 0.005*[#   1]+
    |psi|^2 = 0.005
==== e(   8) =    31.96323 eV ==== 
     psi = 
    |psi|^2 = 0.000

 k =   0.0000000000 -0.2500000000  0.5000000000
==== e(   1) =     8.44196 eV ==== 
     psi = 0.204*[#   1]+0.192*[#   2]+0.192*[#   5]+0.136*[#   3]+0.136*[#   4]+
          +0.136*[#   6]+
    |psi|^2 = 0.996
==== e(   2) =    10.09600 eV ==== 
     psi = 0.333*[#   3]+0.333*[#   4]+0.333*[#   6]+
    |psi|^2 = 1.000
==== e(   3) =    10.37892 eV ==== 
     psi = 0.419*[#   2]+0.419*[#   5]+0.129*[#   1]+0.007*[#   3]+0.007*[#   4]+
          +0.007*[#   6]+
    |psi|^2 = 0.987
==== e(   4) =    11.56000 eV ==== 
     psi = 0.243*[#   2]+0.243*[#   5]+0.170*[#   3]+0.170*[#   4]+0.170*[#   6]+
          +0.002*[#   1]+
    |psi|^2 = 0.998
==== e(   5) =    12.66127 eV ==== 
     psi = 0.333*[#   3]+0.333*[#   4]+0.333*[#   6]+
    |psi|^2 = 0.999
==== e(   6) =    13.36550 eV ==== 
     psi = 0.596*[#   1]+0.145*[#   2]+0.145*[#   5]+0.019*[#   3]+0.019*[#   4]+
          +0.019*[#   6]+
    |psi|^2 = 0.942
==== e(   7) =    23.32214 eV ==== 
     psi = 0.065*[#   1]+0.001*[#   3]+0.001*[#   4]+0.001*[#   6]+
    |psi|^2 = 0.070
==== e(   8) =    30.69126 eV ==== 
     psi = 
    |psi|^2 = 0.000

 k =   0.0000000000 -0.3333333333  0.5833333333
==== e(   1) =     8.47632 eV ==== 
     psi = 0.230*[#   2]+0.230*[#   5]+0.162*[#   3]+0.162*[#   4]+0.162*[#   6]+
          +0.053*[#   1]+
    |psi|^2 = 0.999
==== e(   2) =     9.98532 eV ==== 
     psi = 0.333*[#   3]+0.333*[#   4]+0.333*[#   6]+
    |psi|^2 = 1.000
==== e(   3) =    10.61558 eV ==== 
     psi = 0.464*[#   2]+0.464*[#   5]+0.026*[#   1]+
    |psi|^2 = 0.955
==== e(   4) =    11.57159 eV ==== 
     psi = 0.264*[#   2]+0.264*[#   5]+0.156*[#   3]+0.156*[#   4]+0.156*[#   6]+
          +0.005*[#   1]+
    |psi|^2 = 0.998
==== e(   5) =    13.05703 eV ==== 
     psi = 0.333*[#   3]+0.333*[#   4]+0.333*[#   6]+
    |psi|^2 = 0.999
==== e(   6) =    14.92998 eV ==== 
     psi = 0.307*[#   1]+0.039*[#   2]+0.039*[#   5]+0.006*[#   3]+0.006*[#   4]+
          +0.006*[#   6]+
    |psi|^2 = 0.405
==== e(   7) =    20.55779 eV ==== 
     psi = 0.597*[#   1]+0.009*[#   3]+0.009*[#   4]+0.009*[#   6]+0.002*[#   2]+
          +0.002*[#   5]+
    |psi|^2 = 0.629
==== e(   8) =    29.96057 eV ==== 
     psi = 
    |psi|^2 = 0.000

 k =  -0.0833333333 -0.0833333333  0.4166666667
==== e(   1) =     7.84578 eV ==== 
     psi = 0.704*[#   1]+0.110*[#   2]+0.110*[#   5]+0.024*[#   3]+0.024*[#   4]+
          +0.024*[#   6]+
    |psi|^2 = 0.998
==== e(   2) =    10.19512 eV ==== 
     psi = 0.323*[#   2]+0.323*[#   5]+0.118*[#   3]+0.118*[#   4]+0.118*[#   6]+
    |psi|^2 = 1.000
==== e(   3) =    10.57733 eV ==== 
     psi = 0.318*[#   3]+0.318*[#   4]+0.318*[#   6]+0.032*[#   1]+0.007*[#   2]+
          +0.007*[#   5]+
    |psi|^2 = 1.000
==== e(   4) =    11.08466 eV ==== 
     psi = 0.215*[#   3]+0.215*[#   4]+0.215*[#   6]+0.177*[#   2]+0.177*[#   5]+
    |psi|^2 = 1.000
==== e(   5) =    11.83036 eV ==== 
     psi = 0.308*[#   3]+0.308*[#   4]+0.308*[#   6]+0.037*[#   2]+0.037*[#   5]+
    |psi|^2 = 0.999
==== e(   6) =    12.42872 eV ==== 
     psi = 0.345*[#   2]+0.345*[#   5]+0.260*[#   1]+0.016*[#   3]+0.016*[#   4]+
          +0.016*[#   6]+
    |psi|^2 = 0.997
==== e(   7) =    28.87712 eV ==== 
     psi = 
    |psi|^2 = 0.000
==== e(   8) =    29.75683 eV ==== 
     psi = 0.002*[#   1]+
    |psi|^2 = 0.002

 k =  -0.0833333333 -0.1666666667  0.5000000000
==== e(   1) =     8.59674 eV ==== 
     psi = 0.342*[#   1]+0.202*[#   2]+0.202*[#   5]+0.083*[#   3]+0.083*[#   4]+
          +0.083*[#   6]+
    |psi|^2 = 0.996
==== e(   2) =     9.87568 eV ==== 
     psi = 0.361*[#   2]+0.361*[#   5]+0.083*[#   3]+0.083*[#   4]+0.083*[#   6]+
          +0.027*[#   1]+
    |psi|^2 = 0.999
==== e(   3) =    10.47754 eV ==== 
     psi = 0.285*[#   3]+0.285*[#   4]+0.285*[#   6]+0.056*[#   2]+0.056*[#   5]+
          +0.032*[#   1]+
    |psi|^2 = 0.999
==== e(   4) =    11.36439 eV ==== 
     psi = 0.228*[#   3]+0.228*[#   4]+0.228*[#   6]+0.156*[#   2]+0.156*[#   5]+
          +0.002*[#   1]+
    |psi|^2 = 0.999
==== e(   5) =    12.28359 eV ==== 
     psi = 0.263*[#   3]+0.263*[#   4]+0.263*[#   6]+0.092*[#   2]+0.092*[#   5]+
          +0.026*[#   1]+
    |psi|^2 = 0.999
==== e(   6) =    13.39731 eV ==== 
     psi = 0.549*[#   1]+0.132*[#   2]+0.132*[#   5]+0.057*[#   3]+0.057*[#   4]+
          +0.057*[#   6]+
    |psi|^2 = 0.983
==== e(   7) =    25.45346 eV ==== 
     psi = 0.014*[#   1]+
    |psi|^2 = 0.016
==== e(   8) =    28.08911 eV ==== 
     psi = 0.005*[#   1]+
    |psi|^2 = 0.006

 k =  -0.0833333333 -0.2500000000  0.5833333333
==== e(   1) =     8.76922 eV ==== 
     psi = 0.262*[#   2]+0.262*[#   5]+0.130*[#   3]+0.130*[#   4]+0.130*[#   6]+
          +0.081*[#   1]+
    |psi|^2 = 0.997
==== e(   2) =     9.93708 eV ==== 
     psi = 0.331*[#   2]+0.331*[#   5]+0.098*[#   3]+0.098*[#   4]+0.098*[#   6]+
          +0.035*[#   1]+
    |psi|^2 = 0.990
==== e(   3) =    10.31932 eV ==== 
     psi = 0.236*[#   3]+0.236*[#   4]+0.236*[#   6]+0.135*[#   2]+0.135*[#   5]+
          +0.015*[#   1]+
    |psi|^2 = 0.994
==== e(   4) =    11.53373 eV ==== 
     psi = 0.203*[#   3]+0.203*[#   4]+0.203*[#   6]+0.193*[#   2]+0.193*[#   5]+
          +0.002*[#   1]+
    |psi|^2 = 0.999
==== e(   5) =    12.71584 eV ==== 
     psi = 0.301*[#   3]+0.301*[#   4]+0.301*[#   6]+0.037*[#   2]+0.037*[#   5]+
          +0.018*[#   1]+
    |psi|^2 = 0.995
==== e(   6) =    15.09640 eV ==== 
     psi = 0.632*[#   1]+0.040*[#   2]+0.040*[#   5]+0.027*[#   3]+0.027*[#   4]+
          +0.027*[#   6]+
    |psi|^2 = 0.794
==== e(   7) =    22.08965 eV ==== 
     psi = 0.196*[#   1]+0.003*[#   3]+0.003*[#   4]+0.003*[#   6]+
    |psi|^2 = 0.207
==== e(   8) =    27.19102 eV ==== 
     psi = 0.015*[#   1]+
    |psi|^2 = 0.015

 k =  -0.0833333333  0.6666666667 -0.3333333333
==== e(   1) =     8.73644 eV ==== 
     psi = 0.279*[#   2]+0.279*[#   5]+0.136*[#   3]+0.136*[#   4]+0.136*[#   6]+
          +0.032*[#   1]+
    |psi|^2 = 1.000
==== e(   2) =    10.14335 eV ==== 
     psi = 0.320*[#   3]+0.320*[#   4]+0.320*[#   6]+0.019*[#   2]+0.019*[#   5]+
    |psi|^2 = 1.000
==== e(   3) =    10.14545 eV ==== 
     psi = 0.465*[#   2]+0.465*[#   5]+0.012*[#   3]+0.012*[#   4]+0.012*[#   6]+
    |psi|^2 = 0.967
==== e(   4) =    11.56001 eV ==== 
     psi = 0.199*[#   2]+0.199*[#   5]+0.197*[#   3]+0.197*[#   4]+0.197*[#   6]+
          +0.009*[#   1]+
    |psi|^2 = 0.999
==== e(   5) =    12.91546 eV ==== 
     psi = 0.315*[#   3]+0.315*[#   4]+0.315*[#   6]+0.022*[#   2]+0.022*[#   5]+
    |psi|^2 = 0.990
==== e(   6) =    16.46073 eV ==== 
     psi = 0.012*[#   2]+0.012*[#   5]+0.006*[#   3]+0.006*[#   4]+0.006*[#   6]+
    |psi|^2 = 0.042
==== e(   7) =    20.18584 eV ==== 
     psi = 0.918*[#   1]+0.012*[#   3]+0.012*[#   4]+0.012*[#   6]+0.002*[#   2]+
          +0.002*[#   5]+
    |psi|^2 = 0.959
==== e(   8) =    26.86906 eV ==== 
     psi = 0.028*[#   1]+
    |psi|^2 = 0.028

 k =  -0.1666666667 -0.1666666667  0.5833333333
==== e(   1) =     9.09162 eV ==== 
     psi = 0.259*[#   2]+0.259*[#   5]+0.140*[#   1]+0.112*[#   3]+0.112*[#   4]+
          +0.112*[#   6]+
    |psi|^2 = 0.994
==== e(   2) =     9.50836 eV ==== 
     psi = 0.386*[#   2]+0.386*[#   5]+0.075*[#   3]+0.075*[#   4]+0.075*[#   6]+
    |psi|^2 = 0.999
==== e(   3) =    10.42336 eV ==== 
     psi = 0.254*[#   3]+0.254*[#   4]+0.254*[#   6]+0.113*[#   2]+0.113*[#   5]+
          +0.010*[#   1]+
    |psi|^2 = 0.997
==== e(   4) =    11.59900 eV ==== 
     psi = 0.257*[#   3]+0.257*[#   4]+0.257*[#   6]+0.113*[#   2]+0.113*[#   5]+
    |psi|^2 = 0.999
==== e(   5) =    12.44445 eV ==== 
     psi = 0.262*[#   3]+0.262*[#   4]+0.262*[#   6]+0.089*[#   2]+0.089*[#   5]+
          +0.032*[#   1]+
    |psi|^2 = 0.998
==== e(   6) =    15.17583 eV ==== 
     psi = 0.712*[#   1]+0.038*[#   2]+0.038*[#   5]+0.037*[#   3]+0.037*[#   4]+
          +0.037*[#   6]+
    |psi|^2 = 0.901
==== e(   7) =    24.05104 eV ==== 
     psi = 
    |psi|^2 = 0.001
==== e(   8) =    24.74856 eV ==== 
     psi = 0.101*[#   1]+0.001*[#   3]+0.001*[#   4]+0.001*[#   6]+
    |psi|^2 = 0.104

 k =  -0.1666666667  0.7500000000 -0.3333333333
==== e(   1) =     9.14051 eV ==== 
     psi = 0.329*[#   2]+0.329*[#   5]+0.105*[#   3]+0.105*[#   4]+0.105*[#   6]+
          +0.024*[#   1]+
    |psi|^2 = 0.998
==== e(   2) =     9.63328 eV ==== 
     psi = 0.392*[#   2]+0.392*[#   5]+0.065*[#   3]+0.065*[#   4]+0.065*[#   6]+
          +0.012*[#   1]+
    |psi|^2 = 0.989
==== e(   3) =    10.14999 eV ==== 
     psi = 0.268*[#   3]+0.268*[#   4]+0.268*[#   6]+0.096*[#   2]+0.096*[#   5]+
    |psi|^2 = 0.997
==== e(   4) =    11.83182 eV ==== 
     psi = 0.254*[#   3]+0.254*[#   4]+0.254*[#   6]+0.116*[#   2]+0.116*[#   5]+
          +0.004*[#   1]+
    |psi|^2 = 0.998
==== e(   5) =    12.57534 eV ==== 
     psi = 0.290*[#   3]+0.290*[#   4]+0.290*[#   6]+0.058*[#   2]+0.058*[#   5]+
          +0.007*[#   1]+
    |psi|^2 = 0.993
==== e(   6) =    17.37923 eV ==== 
     psi = 0.368*[#   1]+0.012*[#   3]+0.012*[#   4]+0.012*[#   6]+0.008*[#   2]+
          +0.008*[#   5]+
    |psi|^2 = 0.419
==== e(   7) =    21.18575 eV ==== 
     psi = 0.373*[#   1]+0.004*[#   3]+0.004*[#   4]+0.004*[#   6]+
    |psi|^2 = 0.387
==== e(   8) =    23.87795 eV ==== 
     psi = 0.201*[#   1]+0.001*[#   3]+0.001*[#   4]+0.001*[#   6]+
    |psi|^2 = 0.205

 k =  -0.2500000000  0.2500000000  0.2500000000
==== e(   1) =     7.94085 eV ==== 
     psi = 0.758*[#   1]+0.080*[#   3]+0.080*[#   4]+0.080*[#   6]+
    |psi|^2 = 0.997
==== e(   2) =     9.89817 eV ==== 
     psi = 0.297*[#   3]+0.297*[#   4]+0.297*[#   6]+0.054*[#   2]+0.054*[#   5]+
    |psi|^2 = 1.000
==== e(   3) =     9.89817 eV ==== 
     psi = 0.297*[#   3]+0.297*[#   4]+0.297*[#   6]+0.054*[#   2]+0.054*[#   5]+
    |psi|^2 = 1.000
==== e(   4) =    11.75638 eV ==== 
     psi = 0.446*[#   2]+0.446*[#   5]+0.036*[#   3]+0.036*[#   4]+0.036*[#   6]+
    |psi|^2 = 0.999
==== e(   5) =    11.75638 eV ==== 
     psi = 0.446*[#   2]+0.446*[#   5]+0.036*[#   3]+0.036*[#   4]+0.036*[#   6]+
    |psi|^2 = 0.999
==== e(   6) =    12.87951 eV ==== 
     psi = 0.253*[#   3]+0.253*[#   4]+0.253*[#   6]+0.237*[#   1]+
    |psi|^2 = 0.997
==== e(   7) =    28.69309 eV ==== 
     psi = 
    |psi|^2 = 0.000
==== e(   8) =    28.69309 eV ==== 
     psi = 
    |psi|^2 = 0.000

 k =  -0.2500000000  0.7500000000 -0.2500000000
==== e(   1) =     9.45627 eV ==== 
     psi = 0.421*[#   2]+0.421*[#   5]+0.050*[#   3]+0.050*[#   4]+0.050*[#   6]+
    |psi|^2 = 0.994
==== e(   2) =     9.45627 eV ==== 
     psi = 0.421*[#   2]+0.421*[#   5]+0.050*[#   3]+0.050*[#   4]+0.050*[#   6]+
    |psi|^2 = 0.994
==== e(   3) =     9.92456 eV ==== 
     psi = 0.328*[#   3]+0.328*[#   4]+0.328*[#   6]+0.015*[#   1]+
    |psi|^2 = 1.000
==== e(   4) =    12.26075 eV ==== 
     psi = 0.280*[#   3]+0.280*[#   4]+0.280*[#   6]+0.077*[#   2]+0.077*[#   5]+
    |psi|^2 = 0.995
==== e(   5) =    12.26075 eV ==== 
     psi = 0.280*[#   3]+0.280*[#   4]+0.280*[#   6]+0.077*[#   2]+0.077*[#   5]+
    |psi|^2 = 0.995
==== e(   6) =    19.85079 eV ==== 
     psi = 0.003*[#   3]+0.003*[#   4]+0.003*[#   6]+0.001*[#   2]+0.001*[#   5]+
    |psi|^2 = 0.010
==== e(   7) =    19.85079 eV ==== 
     psi = 0.003*[#   3]+0.003*[#   4]+0.003*[#   6]+0.001*[#   2]+0.001*[#   5]+
    |psi|^2 = 0.010
==== e(   8) =    22.07866 eV ==== 
     psi = 0.968*[#   1]+0.005*[#   3]+0.005*[#   4]+0.005*[#   6]+
    |psi|^2 = 0.982

 k =  -0.3333333333  0.3333333333  0.2500000000
==== e(   1) =     8.84207 eV ==== 
     psi = 0.383*[#   1]+0.181*[#   3]+0.181*[#   4]+0.181*[#   6]+0.034*[#   2]+
          +0.034*[#   5]+
    |psi|^2 = 0.995
==== e(   2) =     9.69573 eV ==== 
     psi = 0.314*[#   3]+0.314*[#   4]+0.314*[#   6]+0.029*[#   2]+0.029*[#   5]+
    |psi|^2 = 1.000
==== e(   3) =     9.92696 eV ==== 
     psi = 0.258*[#   3]+0.258*[#   4]+0.258*[#   6]+0.111*[#   1]+0.055*[#   2]+
          +0.055*[#   5]+
    |psi|^2 = 0.996
==== e(   4) =    11.79481 eV ==== 
     psi = 0.410*[#   2]+0.410*[#   5]+0.059*[#   3]+0.059*[#   4]+0.059*[#   6]+
          +0.001*[#   1]+
    |psi|^2 = 0.999
==== e(   5) =    11.86098 eV ==== 
     psi = 0.471*[#   2]+0.471*[#   5]+0.019*[#   3]+0.019*[#   4]+0.019*[#   6]+
    |psi|^2 = 0.999
==== e(   6) =    14.07717 eV ==== 
     psi = 0.478*[#   1]+0.167*[#   3]+0.167*[#   4]+0.167*[#   6]+
    |psi|^2 = 0.979
==== e(   7) =    25.36185 eV ==== 
     psi = 0.014*[#   1]+
    |psi|^2 = 0.015
==== e(   8) =    27.54981 eV ==== 
     psi = 
    |psi|^2 = 0.000

 k =   0.5833333333 -0.5833333333  0.2500000000
==== e(   1) =     8.94255 eV ==== 
     psi = 0.239*[#   3]+0.239*[#   4]+0.239*[#   6]+0.101*[#   2]+0.101*[#   5]+
          +0.078*[#   1]+
    |psi|^2 = 0.997
==== e(   2) =     9.57401 eV ==== 
     psi = 0.328*[#   3]+0.328*[#   4]+0.328*[#   6]+0.008*[#   2]+0.008*[#   5]+
    |psi|^2 = 1.000
==== e(   3) =    10.60584 eV ==== 
     psi = 0.277*[#   3]+0.277*[#   4]+0.277*[#   6]+0.114*[#   1]+0.010*[#   2]+
          +0.010*[#   5]+
    |psi|^2 = 0.965
==== e(   4) =    11.85911 eV ==== 
     psi = 0.387*[#   2]+0.387*[#   5]+0.074*[#   3]+0.074*[#   4]+0.074*[#   6]+
          +0.002*[#   1]+
    |psi|^2 = 0.999
==== e(   5) =    11.91358 eV ==== 
     psi = 0.492*[#   2]+0.492*[#   5]+0.005*[#   3]+0.005*[#   4]+0.005*[#   6]+
    |psi|^2 = 0.999
==== e(   6) =    15.64624 eV ==== 
     psi = 0.565*[#   1]+0.073*[#   3]+0.073*[#   4]+0.073*[#   6]+
    |psi|^2 = 0.785
==== e(   7) =    22.08452 eV ==== 
     psi = 0.201*[#   1]+0.003*[#   3]+0.003*[#   4]+0.003*[#   6]+
    |psi|^2 = 0.210
==== e(   8) =    26.83180 eV ==== 
     psi = 
    |psi|^2 = 0.000

 k =   0.5833333333 -0.6666666667  0.3333333333
==== e(   1) =     9.32919 eV ==== 
     psi = 0.284*[#   3]+0.284*[#   4]+0.284*[#   6]+0.085*[#   1]+0.030*[#   2]+
          +0.030*[#   5]+
    |psi|^2 = 0.996
==== e(   2) =     9.63272 eV ==== 
     psi = 0.282*[#   3]+0.282*[#   4]+0.282*[#   6]+0.077*[#   2]+0.077*[#   5]+
    |psi|^2 = 0.999
==== e(   3) =     9.97578 eV ==== 
     psi = 0.285*[#   3]+0.285*[#   4]+0.285*[#   6]+0.132*[#   1]+
    |psi|^2 = 0.988
==== e(   4) =    11.85951 eV ==== 
     psi = 0.423*[#   2]+0.423*[#   5]+0.051*[#   3]+0.051*[#   4]+0.051*[#   6]+
    |psi|^2 = 0.999
==== e(   5) =    11.92208 eV ==== 
     psi = 0.469*[#   2]+0.469*[#   5]+0.020*[#   3]+0.020*[#   4]+0.020*[#   6]+
          +0.002*[#   1]+
    |psi|^2 = 0.999
==== e(   6) =    15.72462 eV ==== 
     psi = 0.653*[#   1]+0.077*[#   3]+0.077*[#   4]+0.077*[#   6]+
    |psi|^2 = 0.884
==== e(   7) =    24.03589 eV ==== 
     psi = 
    |psi|^2 = 0.001
==== e(   8) =    24.73893 eV ==== 
     psi = 0.091*[#   1]+
    |psi|^2 = 0.094

 k =   0.5000000000 -0.5000000000  0.2500000000
==== e(   1) =     8.89454 eV ==== 
     psi = 0.244*[#   3]+0.244*[#   4]+0.244*[#   6]+0.117*[#   2]+0.117*[#   5]+
          +0.035*[#   1]+
    |psi|^2 = 0.999
==== e(   2) =     9.53377 eV ==== 
     psi = 0.333*[#   3]+0.333*[#   4]+0.333*[#   6]+
    |psi|^2 = 1.000
==== e(   3) =    10.95584 eV ==== 
     psi = 0.309*[#   3]+0.309*[#   4]+0.309*[#   6]+
    |psi|^2 = 0.928
==== e(   4) =    11.88788 eV ==== 
     psi = 0.381*[#   2]+0.381*[#   5]+0.078*[#   3]+0.078*[#   4]+0.078*[#   6]+
          +0.002*[#   1]+
    |psi|^2 = 0.999
==== e(   5) =    11.92922 eV ==== 
     psi = 0.500*[#   2]+0.500*[#   5]+
    |psi|^2 = 0.999
==== e(   6) =    16.89068 eV ==== 
     psi = 0.024*[#   3]+0.024*[#   4]+0.024*[#   6]+
    |psi|^2 = 0.071
==== e(   7) =    20.22462 eV ==== 
     psi = 0.890*[#   1]+0.011*[#   3]+0.011*[#   4]+0.011*[#   6]+0.001*[#   2]+
          +0.001*[#   5]+
    |psi|^2 = 0.926
==== e(   8) =    26.58664 eV ==== 
     psi = 
    |psi|^2 = 0.000

 k =   0.5000000000 -0.5833333333  0.3333333333
==== e(   1) =     9.29118 eV ==== 
     psi = 0.297*[#   3]+0.297*[#   4]+0.297*[#   6]+0.043*[#   2]+0.043*[#   5]+
          +0.022*[#   1]+
    |psi|^2 = 0.998
==== e(   2) =     9.61204 eV ==== 
     psi = 0.305*[#   3]+0.305*[#   4]+0.305*[#   6]+0.041*[#   2]+0.041*[#   5]+
          +0.002*[#   1]+
    |psi|^2 = 0.998
==== e(   3) =    10.32710 eV ==== 
     psi = 0.301*[#   3]+0.301*[#   4]+0.301*[#   6]+0.025*[#   2]+0.025*[#   5]+
          +0.020*[#   1]+
    |psi|^2 = 0.972
==== e(   4) =    11.91080 eV ==== 
     psi = 0.420*[#   2]+0.420*[#   5]+0.053*[#   3]+0.053*[#   4]+0.053*[#   6]+
    |psi|^2 = 0.999
==== e(   5) =    11.95200 eV ==== 
     psi = 0.469*[#   2]+0.469*[#   5]+0.020*[#   3]+0.020*[#   4]+0.020*[#   6]+
    |psi|^2 = 0.999
==== e(   6) =    17.74365 eV ==== 
     psi = 0.341*[#   1]+0.020*[#   3]+0.020*[#   4]+0.020*[#   6]+
    |psi|^2 = 0.403
==== e(   7) =    21.26826 eV ==== 
     psi = 0.361*[#   1]+0.004*[#   3]+0.004*[#   4]+0.004*[#   6]+
    |psi|^2 = 0.373
==== e(   8) =    23.93826 eV ==== 
     psi = 0.176*[#   1]+
    |psi|^2 = 0.178

 k =   0.4166666667 -0.5833333333  0.4166666667
==== e(   1) =     9.36095 eV ==== 
     psi = 0.330*[#   3]+0.330*[#   4]+0.330*[#   6]+0.008*[#   1]+
    |psi|^2 = 1.000
==== e(   2) =     9.95148 eV ==== 
     psi = 0.292*[#   3]+0.292*[#   4]+0.292*[#   6]+0.056*[#   2]+0.056*[#   5]+
    |psi|^2 = 0.988
==== e(   3) =     9.95148 eV ==== 
     psi = 0.292*[#   3]+0.292*[#   4]+0.292*[#   6]+0.056*[#   2]+0.056*[#   5]+
    |psi|^2 = 0.988
==== e(   4) =    11.94939 eV ==== 
     psi = 0.443*[#   2]+0.443*[#   5]+0.038*[#   3]+0.038*[#   4]+0.038*[#   6]+
    |psi|^2 = 0.999
==== e(   5) =    11.94939 eV ==== 
     psi = 0.443*[#   2]+0.443*[#   5]+0.038*[#   3]+0.038*[#   4]+0.038*[#   6]+
    |psi|^2 = 0.999
==== e(   6) =    20.07327 eV ==== 
     psi = 0.004*[#   3]+0.004*[#   4]+0.004*[#   6]+
    |psi|^2 = 0.012
==== e(   7) =    20.07327 eV ==== 
     psi = 0.004*[#   3]+0.004*[#   4]+0.004*[#   6]+
    |psi|^2 = 0.012
==== e(   8) =    22.13100 eV ==== 
     psi = 0.896*[#   1]+0.003*[#   3]+0.003*[#   4]+0.003*[#   6]+
    |psi|^2 = 0.904

 k =   0.0000000000  0.0000000000  0.4166666667
==== e(   1) =     7.69863 eV ==== 
     psi = 0.761*[#   1]+0.119*[#   2]+0.119*[#   5]+
    |psi|^2 = 0.999
==== e(   2) =    10.42158 eV ==== 
     psi = 0.500*[#   2]+0.500*[#   5]+
    |psi|^2 = 1.000
==== e(   3) =    10.83468 eV ==== 
     psi = 0.333*[#   3]+0.333*[#   4]+0.333*[#   6]+
    |psi|^2 = 1.000
==== e(   4) =    10.83468 eV ==== 
     psi = 0.333*[#   3]+0.333*[#   4]+0.333*[#   6]+
    |psi|^2 = 1.000
==== e(   5) =    11.43362 eV ==== 
     psi = 0.333*[#   3]+0.333*[#   4]+0.333*[#   6]+
    |psi|^2 = 1.000
==== e(   6) =    12.41458 eV ==== 
     psi = 0.381*[#   2]+0.381*[#   5]+0.237*[#   1]+
    |psi|^2 = 0.998
==== e(   7) =    30.92645 eV ==== 
     psi = 
    |psi|^2 = 0.000
==== e(   8) =    31.50464 eV ==== 
     psi = 
    |psi|^2 = 0.000

 k =   0.0000000000 -0.0833333333  0.5000000000
==== e(   1) =     8.48107 eV ==== 
     psi = 0.461*[#   1]+0.243*[#   2]+0.243*[#   5]+0.017*[#   3]+0.017*[#   4]+
          +0.017*[#   6]+
    |psi|^2 = 0.998
==== e(   2) =     9.92807 eV ==== 
     psi = 0.465*[#   2]+0.465*[#   5]+0.021*[#   3]+0.021*[#   4]+0.021*[#   6]+
          +0.006*[#   1]+
    |psi|^2 = 1.000
==== e(   3) =    10.81475 eV ==== 
     psi = 0.333*[#   3]+0.333*[#   4]+0.333*[#   6]+
    |psi|^2 = 1.000
==== e(   4) =    11.14600 eV ==== 
     psi = 0.291*[#   3]+0.291*[#   4]+0.291*[#   6]+0.061*[#   2]+0.061*[#   5]+
          +0.004*[#   1]+
    |psi|^2 = 0.999
==== e(   5) =    11.95230 eV ==== 
     psi = 0.333*[#   3]+0.333*[#   4]+0.333*[#   6]+
    |psi|^2 = 0.999
==== e(   6) =    13.06680 eV ==== 
     psi = 0.522*[#   1]+0.231*[#   2]+0.231*[#   5]+0.003*[#   3]+0.003*[#   4]+
          +0.003*[#   6]+
    |psi|^2 = 0.995
==== e(   7) =    27.64316 eV ==== 
     psi = 0.003*[#   1]+
    |psi|^2 = 0.003
==== e(   8) =    29.75483 eV ==== 
     psi = 
    |psi|^2 = 0.000

 k =   0.0000000000 -0.1666666667  0.5833333333
==== e(   1) =     8.83572 eV ==== 
     psi = 0.328*[#   2]+0.328*[#   5]+0.145*[#   1]+0.065*[#   3]+0.065*[#   4]+
          +0.065*[#   6]+
    |psi|^2 = 0.997
==== e(   2) =     9.66062 eV ==== 
     psi = 0.469*[#   2]+0.469*[#   5]+0.038*[#   1]+0.007*[#   3]+0.007*[#   4]+
          +0.007*[#   6]+
    |psi|^2 = 0.996
==== e(   3) =    10.68690 eV ==== 
     psi = 0.333*[#   3]+0.333*[#   4]+0.333*[#   6]+
    |psi|^2 = 1.000
==== e(   4) =    11.38847 eV ==== 
     psi = 0.249*[#   3]+0.249*[#   4]+0.249*[#   6]+0.125*[#   2]+0.125*[#   5]+
          +0.001*[#   1]+
    |psi|^2 = 0.999
==== e(   5) =    12.58366 eV ==== 
     psi = 0.333*[#   3]+0.333*[#   4]+0.333*[#   6]+
    |psi|^2 = 0.999
==== e(   6) =    14.50925 eV ==== 
     psi = 0.755*[#   1]+0.078*[#   2]+0.078*[#   5]+0.010*[#   3]+0.010*[#   4]+
          +0.010*[#   6]+
    |psi|^2 = 0.941
==== e(   7) =    23.99918 eV ==== 
     psi = 0.053*[#   1]+
    |psi|^2 = 0.056
==== e(   8) =    28.40006 eV ==== 
     psi = 
    |psi|^2 = 0.000

 k =   0.0000000000 -0.2500000000  0.6666666667
==== e(   1) =     8.79599 eV ==== 
     psi = 0.355*[#   2]+0.355*[#   5]+0.086*[#   3]+0.086*[#   4]+0.086*[#   6]+
          +0.032*[#   1]+
    |psi|^2 = 0.999
==== e(   2) =     9.69851 eV ==== 
     psi = 0.486*[#   2]+0.486*[#   5]+0.011*[#   1]+
    |psi|^2 = 0.984
==== e(   3) =    10.60400 eV ==== 
     psi = 0.333*[#   3]+0.333*[#   4]+0.333*[#   6]+
    |psi|^2 = 1.000
==== e(   4) =    11.44565 eV ==== 
     psi = 0.236*[#   3]+0.236*[#   4]+0.236*[#   6]+0.140*[#   2]+0.140*[#   5]+
          +0.012*[#   1]+
    |psi|^2 = 0.999
==== e(   5) =    12.99644 eV ==== 
     psi = 0.333*[#   3]+0.333*[#   4]+0.333*[#   6]+
    |psi|^2 = 0.999
==== e(   6) =    16.51148 eV ==== 
     psi = 0.379*[#   1]+0.017*[#   2]+0.017*[#   5]+0.005*[#   3]+0.005*[#   4]+
          +0.005*[#   6]+
    |psi|^2 = 0.426
==== e(   7) =    20.96491 eV ==== 
     psi = 0.542*[#   1]+0.007*[#   3]+0.007*[#   4]+0.007*[#   6]+0.001*[#   2]+
          +0.001*[#   5]+
    |psi|^2 = 0.565
==== e(   8) =    27.63733 eV ==== 
     psi = 
    |psi|^2 = 0.000

 k =  -0.0833333333 -0.0833333333  0.5833333333
==== e(   1) =     8.90204 eV ==== 
     psi = 0.361*[#   2]+0.361*[#   5]+0.202*[#   1]+0.025*[#   3]+0.025*[#   4]+
          +0.025*[#   6]+
    |psi|^2 = 0.997
==== e(   2) =     9.49535 eV ==== 
     psi = 0.466*[#   2]+0.466*[#   5]+0.023*[#   3]+0.023*[#   4]+0.023*[#   6]+
    |psi|^2 = 1.000
==== e(   3) =    10.91189 eV ==== 
     psi = 0.311*[#   3]+0.311*[#   4]+0.311*[#   6]+0.033*[#   2]+0.033*[#   5]+
    |psi|^2 = 0.999
==== e(   4) =    11.41007 eV ==== 
     psi = 0.310*[#   3]+0.310*[#   4]+0.310*[#   6]+0.034*[#   2]+0.034*[#   5]+
    |psi|^2 = 0.999
==== e(   5) =    12.32615 eV ==== 
     psi = 0.318*[#   3]+0.318*[#   4]+0.318*[#   6]+0.019*[#   2]+0.019*[#   5]+
          +0.008*[#   1]+
    |psi|^2 = 0.999
==== e(   6) =    14.36847 eV ==== 
     psi = 0.764*[#   1]+0.087*[#   2]+0.087*[#   5]+0.012*[#   3]+0.012*[#   4]+
          +0.012*[#   6]+
    |psi|^2 = 0.975
==== e(   7) =    26.11139 eV ==== 
     psi = 
    |psi|^2 = 0.000
==== e(   8) =    26.56556 eV ==== 
     psi = 0.021*[#   1]+
    |psi|^2 = 0.022

 k =  -0.0833333333 -0.1666666667  0.6666666667
==== e(   1) =     8.97876 eV ==== 
     psi = 0.415*[#   2]+0.415*[#   5]+0.042*[#   3]+0.042*[#   4]+0.042*[#   6]+
          +0.041*[#   1]+
    |psi|^2 = 0.998
==== e(   2) =     9.30303 eV ==== 
     psi = 0.471*[#   2]+0.471*[#   5]+0.017*[#   1]+0.012*[#   3]+0.012*[#   4]+
          +0.012*[#   6]+
    |psi|^2 = 0.996
==== e(   3) =    10.79369 eV ==== 
     psi = 0.316*[#   3]+0.316*[#   4]+0.316*[#   6]+0.025*[#   2]+0.025*[#   5]+
          +0.002*[#   1]+
    |psi|^2 = 0.999
==== e(   4) =    11.69298 eV ==== 
     psi = 0.296*[#   3]+0.296*[#   4]+0.296*[#   6]+0.054*[#   2]+0.054*[#   5]+
          +0.004*[#   1]+
    |psi|^2 = 0.999
==== e(   5) =    12.71434 eV ==== 
     psi = 0.322*[#   3]+0.322*[#   4]+0.322*[#   6]+0.013*[#   2]+0.013*[#   5]+
          +0.008*[#   1]+
    |psi|^2 = 0.998
==== e(   6) =    16.41075 eV ==== 
     psi = 0.726*[#   1]+0.021*[#   2]+0.021*[#   5]+0.010*[#   3]+0.010*[#   4]+
          +0.010*[#   6]+
    |psi|^2 = 0.798
==== e(   7) =    22.84807 eV ==== 
     psi = 0.142*[#   1]+0.002*[#   3]+0.002*[#   4]+0.002*[#   6]+
    |psi|^2 = 0.148
==== e(   8) =    25.41911 eV ==== 
     psi = 0.046*[#   1]+
    |psi|^2 = 0.047

 k =  -0.0833333333  0.7500000000 -0.2500000000
==== e(   1) =     8.89670 eV ==== 
     psi = 0.423*[#   2]+0.423*[#   5]+0.047*[#   3]+0.047*[#   4]+0.047*[#   6]+
          +0.012*[#   1]+
    |psi|^2 = 0.999
==== e(   2) =     9.33839 eV ==== 
     psi = 0.487*[#   2]+0.487*[#   5]+0.005*[#   3]+0.005*[#   4]+0.005*[#   6]+
    |psi|^2 = 0.991
==== e(   3) =    10.72803 eV ==== 
     psi = 0.322*[#   3]+0.322*[#   4]+0.322*[#   6]+0.013*[#   2]+0.013*[#   5]+
          +0.006*[#   1]+
    |psi|^2 = 1.000
==== e(   4) =    11.77427 eV ==== 
     psi = 0.288*[#   3]+0.288*[#   4]+0.288*[#   6]+0.062*[#   2]+0.062*[#   5]+
          +0.010*[#   1]+
    |psi|^2 = 0.999
==== e(   5) =    12.89615 eV ==== 
     psi = 0.326*[#   3]+0.326*[#   4]+0.326*[#   6]+0.009*[#   2]+0.009*[#   5]+
    |psi|^2 = 0.996
==== e(   6) =    18.22863 eV ==== 
     psi = 0.004*[#   2]+0.004*[#   5]+0.001*[#   3]+0.001*[#   4]+0.001*[#   6]+
    |psi|^2 = 0.012
==== e(   7) =    20.57616 eV ==== 
     psi = 0.867*[#   1]+0.008*[#   3]+0.008*[#   4]+0.008*[#   6]+0.001*[#   2]+
          +0.001*[#   5]+
    |psi|^2 = 0.894
==== e(   8) =    25.06334 eV ==== 
     psi = 0.078*[#   1]+
    |psi|^2 = 0.079

 k =  -0.1666666667  0.8333333333 -0.2500000000
==== e(   1) =     9.04684 eV ==== 
     psi = 0.468*[#   2]+0.468*[#   5]+0.021*[#   3]+0.021*[#   4]+0.021*[#   6]+
    |psi|^2 = 0.999
==== e(   2) =     9.09993 eV ==== 
     psi = 0.469*[#   2]+0.469*[#   5]+0.017*[#   3]+0.017*[#   4]+0.017*[#   6]+
          +0.007*[#   1]+
    |psi|^2 = 0.996
==== e(   3) =    10.68181 eV ==== 
     psi = 0.325*[#   3]+0.325*[#   4]+0.325*[#   6]+0.011*[#   1]+0.007*[#   2]+
          +0.007*[#   5]+
    |psi|^2 = 1.000
==== e(   4) =    12.19580 eV ==== 
     psi = 0.311*[#   3]+0.311*[#   4]+0.311*[#   6]+0.032*[#   2]+0.032*[#   5]+
    |psi|^2 = 0.997
==== e(   5) =    12.63720 eV ==== 
     psi = 0.317*[#   3]+0.317*[#   4]+0.317*[#   6]+0.021*[#   2]+0.021*[#   5]+
          +0.003*[#   1]+
    |psi|^2 = 0.996
==== e(   6) =    18.84340 eV ==== 
     psi = 0.343*[#   1]+0.005*[#   3]+0.005*[#   4]+0.005*[#   6]+0.003*[#   2]+
          +0.003*[#   5]+
    |psi|^2 = 0.362
==== e(   7) =    21.68579 eV ==== 
     psi = 0.001*[#   3]+0.001*[#   4]+0.001*[#   6]+
    |psi|^2 = 0.004
==== e(   8) =    22.74012 eV ==== 
     psi = 0.609*[#   1]+0.003*[#   3]+0.003*[#   4]+0.003*[#   6]+
    |psi|^2 = 0.618

 k =   0.5833333333 -0.5833333333  0.4166666667
==== e(   1) =     9.61138 eV ==== 
     psi = 0.318*[#   3]+0.318*[#   4]+0.318*[#   6]+0.022*[#   2]+0.022*[#   5]+
    |psi|^2 = 0.998
==== e(   2) =     9.61138 eV ==== 
     psi = 0.318*[#   3]+0.318*[#   4]+0.318*[#   6]+0.022*[#   2]+0.022*[#   5]+
    |psi|^2 = 0.998
==== e(   3) =     9.97299 eV ==== 
     psi = 0.308*[#   3]+0.308*[#   4]+0.308*[#   6]+0.058*[#   1]+
    |psi|^2 = 0.983
==== e(   4) =    11.92806 eV ==== 
     psi = 0.478*[#   2]+0.478*[#   5]+0.015*[#   3]+0.015*[#   4]+0.015*[#   6]+
    |psi|^2 = 0.999
==== e(   5) =    11.92806 eV ==== 
     psi = 0.478*[#   2]+0.478*[#   5]+0.015*[#   3]+0.015*[#   4]+0.015*[#   6]+
    |psi|^2 = 0.999
==== e(   6) =    17.76599 eV ==== 
     psi = 0.535*[#   1]+0.024*[#   3]+0.024*[#   4]+0.024*[#   6]+
    |psi|^2 = 0.608
==== e(   7) =    23.28716 eV ==== 
     psi = 
    |psi|^2 = 0.001
==== e(   8) =    23.28716 eV ==== 
     psi = 
    |psi|^2 = 0.001

 k =   0.5000000000 -0.5000000000  0.4166666667
==== e(   1) =     9.61192 eV ==== 
     psi = 0.333*[#   3]+0.333*[#   4]+0.333*[#   6]+
    |psi|^2 = 0.998
==== e(   2) =     9.64258 eV ==== 
     psi = 0.315*[#   3]+0.315*[#   4]+0.315*[#   6]+0.023*[#   2]+0.023*[#   5]+
          +0.007*[#   1]+
    |psi|^2 = 0.996
==== e(   3) =    10.03792 eV ==== 
     psi = 0.329*[#   3]+0.329*[#   4]+0.329*[#   6]+
    |psi|^2 = 0.986
==== e(   4) =    11.94099 eV ==== 
     psi = 0.477*[#   2]+0.477*[#   5]+0.015*[#   3]+0.015*[#   4]+0.015*[#   6]+
    |psi|^2 = 0.999
==== e(   5) =    11.94358 eV ==== 
     psi = 0.499*[#   2]+0.499*[#   5]+
    |psi|^2 = 0.999
==== e(   6) =    19.77653 eV ==== 
     psi = 0.005*[#   3]+0.005*[#   4]+0.005*[#   6]+
    |psi|^2 = 0.014
==== e(   7) =    21.01506 eV ==== 
     psi = 0.418*[#   1]+0.003*[#   3]+0.003*[#   4]+0.003*[#   6]+
    |psi|^2 = 0.429
==== e(   8) =    23.03460 eV ==== 
     psi = 
    |psi|^2 = 0.002

 k =   0.0000000000  0.0000000000  0.5833333333
==== e(   1) =     8.81651 eV ==== 
     psi = 0.388*[#   2]+0.388*[#   5]+0.222*[#   1]+
    |psi|^2 = 0.999
==== e(   2) =     9.50272 eV ==== 
     psi = 0.500*[#   2]+0.500*[#   5]+
    |psi|^2 = 1.000
==== e(   3) =    11.32977 eV ==== 
     psi = 0.333*[#   3]+0.333*[#   4]+0.333*[#   6]+
    |psi|^2 = 0.999
==== e(   4) =    11.32977 eV ==== 
     psi = 0.333*[#   3]+0.333*[#   4]+0.333*[#   6]+
    |psi|^2 = 0.999
==== e(   5) =    12.02471 eV ==== 
     psi = 0.333*[#   3]+0.333*[#   4]+0.333*[#   6]+
    |psi|^2 = 0.999
==== e(   6) =    14.12486 eV ==== 
     psi = 0.769*[#   1]+0.111*[#   2]+0.111*[#   5]+
    |psi|^2 = 0.991
==== e(   7) =    27.85905 eV ==== 
     psi = 
    |psi|^2 = 0.000
==== e(   8) =    27.85905 eV ==== 
     psi = 
    |psi|^2 = 0.000

 k =   0.0000000000 -0.0833333333  0.6666666667
==== e(   1) =     8.87882 eV ==== 
     psi = 0.454*[#   2]+0.454*[#   5]+0.069*[#   1]+0.007*[#   3]+0.007*[#   4]+
          +0.007*[#   6]+
    |psi|^2 = 0.998
==== e(   2) =     9.11352 eV ==== 
     psi = 0.493*[#   2]+0.493*[#   5]+0.003*[#   1]+0.003*[#   3]+0.003*[#   4]+
          +0.003*[#   6]+
    |psi|^2 = 0.999
==== e(   3) =    11.44092 eV ==== 
     psi = 0.333*[#   3]+0.333*[#   4]+0.333*[#   6]+
    |psi|^2 = 0.999
==== e(   4) =    11.63486 eV ==== 
     psi = 0.319*[#   3]+0.319*[#   4]+0.319*[#   6]+0.019*[#   2]+0.019*[#   5]+
          +0.004*[#   1]+
    |psi|^2 = 0.999
==== e(   5) =    12.50833 eV ==== 
     psi = 0.333*[#   3]+0.333*[#   4]+0.333*[#   6]+
    |psi|^2 = 0.999
==== e(   6) =    15.86380 eV ==== 
     psi = 0.868*[#   1]+0.034*[#   2]+0.034*[#   5]+0.003*[#   3]+0.003*[#   4]+
          +0.003*[#   6]+
    |psi|^2 = 0.944
==== e(   7) =    24.86345 eV ==== 
     psi = 0.031*[#   1]+
    |psi|^2 = 0.033
==== e(   8) =    26.39630 eV ==== 
     psi = 
    |psi|^2 = 0.001

 k =   0.0000000000 -0.1666666667  0.7500000000
==== e(   1) =     8.76739 eV ==== 
     psi = 0.467*[#   2]+0.467*[#   5]+0.018*[#   3]+0.018*[#   4]+0.018*[#   6]+
          +0.010*[#   1]+
    |psi|^2 = 0.999
==== e(   2) =     8.99081 eV ==== 
     psi = 0.496*[#   2]+0.496*[#   5]+0.004*[#   1]+
    |psi|^2 = 0.996
==== e(   3) =    11.41506 eV ==== 
     psi = 0.333*[#   3]+0.333*[#   4]+0.333*[#   6]+
    |psi|^2 = 0.999
==== e(   4) =    11.78262 eV ==== 
     psi = 0.308*[#   3]+0.308*[#   4]+0.308*[#   6]+0.030*[#   2]+0.030*[#   5]+
          +0.014*[#   1]+
    |psi|^2 = 0.999
==== e(   5) =    12.92711 eV ==== 
     psi = 0.333*[#   3]+0.333*[#   4]+0.333*[#   6]+
    |psi|^2 = 0.999
==== e(   6) =    18.17008 eV ==== 
     psi = 0.488*[#   1]+0.006*[#   2]+0.006*[#   5]+0.003*[#   3]+0.003*[#   4]+
          +0.003*[#   6]+
    |psi|^2 = 0.507
==== e(   7) =    21.70664 eV ==== 
     psi = 0.427*[#   1]+0.003*[#   3]+0.003*[#   4]+0.003*[#   6]+
    |psi|^2 = 0.438
==== e(   8) =    25.56957 eV ==== 
     psi = 
    |psi|^2 = 0.001

 k =  -0.0833333333 -0.0833333333  0.7500000000
==== e(   1) =     8.78325 eV ==== 
     psi = 0.485*[#   2]+0.485*[#   5]+0.017*[#   1]+0.004*[#   3]+0.004*[#   4]+
          +0.004*[#   6]+
    |psi|^2 = 0.998
==== e(   2) =     8.80128 eV ==== 
     psi = 0.492*[#   2]+0.492*[#   5]+0.005*[#   3]+0.005*[#   4]+0.005*[#   6]+
    |psi|^2 = 1.000
==== e(   3) =    11.53337 eV ==== 
     psi = 0.329*[#   3]+0.329*[#   4]+0.329*[#   6]+0.006*[#   1]+0.003*[#   2]+
          +0.003*[#   5]+
    |psi|^2 = 0.999
==== e(   4) =    12.12508 eV ==== 
     psi = 0.328*[#   3]+0.328*[#   4]+0.328*[#   6]+0.008*[#   2]+0.008*[#   5]+
    |psi|^2 = 0.998
==== e(   5) =    12.73797 eV ==== 
     psi = 0.330*[#   3]+0.330*[#   4]+0.330*[#   6]+0.003*[#   1]+0.003*[#   2]+
          +0.003*[#   5]+
    |psi|^2 = 0.999
==== e(   6) =    17.98031 eV ==== 
     psi = 0.750*[#   1]+0.007*[#   2]+0.007*[#   5]+0.003*[#   3]+0.003*[#   4]+
          +0.003*[#   6]+
    |psi|^2 = 0.774
==== e(   7) =    23.62527 eV ==== 
     psi = 
    |psi|^2 = 0.002
==== e(   8) =    24.00682 eV ==== 
     psi = 0.175*[#   1]+0.001*[#   3]+0.001*[#   4]+0.001*[#   6]+
    |psi|^2 = 0.179

 k =  -0.0833333333  0.8333333333 -0.1666666667
==== e(   1) =     8.67770 eV ==== 
     psi = 0.488*[#   2]+0.488*[#   5]+0.007*[#   3]+0.007*[#   4]+0.007*[#   6]+
          +0.002*[#   1]+
    |psi|^2 = 0.999
==== e(   2) =     8.74996 eV ==== 
     psi = 0.496*[#   2]+0.496*[#   5]+0.002*[#   3]+0.002*[#   4]+0.002*[#   6]+
    |psi|^2 = 0.998
==== e(   3) =    11.52249 eV ==== 
     psi = 0.330*[#   3]+0.330*[#   4]+0.330*[#   6]+0.008*[#   1]+0.001*[#   2]+
          +0.001*[#   5]+
    |psi|^2 = 0.999
==== e(   4) =    12.34225 eV ==== 
     psi = 0.325*[#   3]+0.325*[#   4]+0.325*[#   6]+0.010*[#   2]+0.010*[#   5]+
          +0.003*[#   1]+
    |psi|^2 = 0.998
==== e(   5) =    12.84389 eV ==== 
     psi = 0.331*[#   3]+0.331*[#   4]+0.331*[#   6]+0.003*[#   2]+0.003*[#   5]+
    |psi|^2 = 0.998
==== e(   6) =    20.14192 eV ==== 
     psi = 
    |psi|^2 = 0.003
==== e(   7) =    21.28098 eV ==== 
     psi = 0.690*[#   1]+0.003*[#   3]+0.003*[#   4]+0.003*[#   6]+
    |psi|^2 = 0.701
==== e(   8) =    23.46971 eV ==== 
     psi = 0.226*[#   1]+0.001*[#   3]+0.001*[#   4]+0.001*[#   6]+
    |psi|^2 = 0.229

 k =   0.0000000000  0.0000000000  0.7500000000
==== e(   1) =     8.66305 eV ==== 
     psi = 0.489*[#   2]+0.489*[#   5]+0.021*[#   1]+
    |psi|^2 = 0.999
==== e(   2) =     8.72013 eV ==== 
     psi = 0.500*[#   2]+0.500*[#   5]+
    |psi|^2 = 1.000
==== e(   3) =    12.09596 eV ==== 
     psi = 0.333*[#   3]+0.333*[#   4]+0.333*[#   6]+
    |psi|^2 = 0.998
==== e(   4) =    12.09596 eV ==== 
     psi = 0.333*[#   3]+0.333*[#   4]+0.333*[#   6]+
    |psi|^2 = 0.998
==== e(   5) =    12.54729 eV ==== 
     psi = 0.333*[#   3]+0.333*[#   4]+0.333*[#   6]+
    |psi|^2 = 0.999
==== e(   6) =    17.64433 eV ==== 
     psi = 0.897*[#   1]+0.010*[#   2]+0.010*[#   5]+
    |psi|^2 = 0.918
==== e(   7) =    24.82639 eV ==== 
     psi = 
    |psi|^2 = 0.001
==== e(   8) =    24.82639 eV ==== 
     psi = 
    |psi|^2 = 0.001

 k =   0.0000000000 -0.0833333333  0.8333333333
==== e(   1) =     8.48902 eV ==== 
     psi = 0.497*[#   2]+0.497*[#   5]+0.002*[#   1]+0.001*[#   3]+0.001*[#   4]+
          +0.001*[#   6]+
    |psi|^2 = 1.000
==== e(   2) =     8.51551 eV ==== 
     psi = 0.499*[#   2]+0.499*[#   5]+0.001*[#   1]+
    |psi|^2 = 0.999
==== e(   3) =    12.24172 eV ==== 
     psi = 0.333*[#   3]+0.333*[#   4]+0.333*[#   6]+
    |psi|^2 = 0.998
==== e(   4) =    12.37920 eV ==== 
     psi = 0.330*[#   3]+0.330*[#   4]+0.330*[#   6]+0.004*[#   1]+0.002*[#   2]+
          +0.002*[#   5]+
    |psi|^2 = 0.999
==== e(   5) =    12.86833 eV ==== 
     psi = 0.333*[#   3]+0.333*[#   4]+0.333*[#   6]+
    |psi|^2 = 0.999
==== e(   6) =    19.90923 eV ==== 
     psi = 0.593*[#   1]+0.001*[#   2]+0.001*[#   5]+
    |psi|^2 = 0.597
==== e(   7) =    22.66387 eV ==== 
     psi = 0.233*[#   1]+0.001*[#   3]+0.001*[#   4]+0.001*[#   6]+
    |psi|^2 = 0.236
==== e(   8) =    23.92543 eV ==== 
     psi = 
    |psi|^2 = 0.001

 k =  -0.0833333333  0.9166666667 -0.0833333333
==== e(   1) =     8.39477 eV ==== 
     psi = 0.499*[#   2]+0.499*[#   5]+
    |psi|^2 = 0.999
==== e(   2) =     8.39477 eV ==== 
     psi = 0.499*[#   2]+0.499*[#   5]+
    |psi|^2 = 0.999
==== e(   3) =    12.32570 eV ==== 
     psi = 0.332*[#   3]+0.332*[#   4]+0.332*[#   6]+0.004*[#   1]+
    |psi|^2 = 0.999
==== e(   4) =    12.79928 eV ==== 
     psi = 0.332*[#   3]+0.332*[#   4]+0.332*[#   6]+
    |psi|^2 = 0.999
==== e(   5) =    12.79928 eV ==== 
     psi = 0.332*[#   3]+0.332*[#   4]+0.332*[#   6]+
    |psi|^2 = 0.999
==== e(   6) =    21.98502 eV ==== 
     psi = 
    |psi|^2 = 0.001
==== e(   7) =    21.98502 eV ==== 
     psi = 
    |psi|^2 = 0.001
==== e(   8) =    22.56309 eV ==== 
     psi = 0.750*[#   1]+0.001*[#   3]+0.001*[#   4]+0.001*[#   6]+
    |psi|^2 = 0.754

 k =   0.0000000000  0.0000000000  0.9166666667
==== e(   1) =     8.27624 eV ==== 
     psi = 0.500*[#   2]+0.500*[#   5]+
    |psi|^2 = 0.999
==== e(   2) =     8.27945 eV ==== 
     psi = 0.500*[#   2]+0.500*[#   5]+
    |psi|^2 = 0.999
==== e(   3) =    12.78216 eV ==== 
     psi = 0.333*[#   3]+0.333*[#   4]+0.333*[#   6]+
    |psi|^2 = 0.999
==== e(   4) =    12.78216 eV ==== 
     psi = 0.333*[#   3]+0.333*[#   4]+0.333*[#   6]+
    |psi|^2 = 0.999
==== e(   5) =    12.85346 eV ==== 
     psi = 0.333*[#   3]+0.333*[#   4]+0.333*[#   6]+
    |psi|^2 = 0.999
==== e(   6) =    21.70952 eV ==== 
     psi = 0.440*[#   1]+
    |psi|^2 = 0.440
==== e(   7) =    22.96645 eV ==== 
     psi = 
    |psi|^2 = 0.001
==== e(   8) =    22.96645 eV ==== 
     psi = 
    |psi|^2 = 0.001

 k =   0.0000000000  0.0000000000  0.0833333333
==== e(   1) =     4.95353 eV ==== 
     psi = 0.997*[#   1]+
    |psi|^2 = 0.997
==== e(   2) =    12.83930 eV ==== 
     psi = 0.333*[#   3]+0.333*[#   4]+0.333*[#   6]+
    |psi|^2 = 1.000
==== e(   3) =    12.83930 eV ==== 
     psi = 0.333*[#   3]+0.333*[#   4]+0.333*[#   6]+
    |psi|^2 = 1.000
==== e(   4) =    12.88829 eV ==== 
     psi = 0.333*[#   3]+0.333*[#   4]+0.333*[#   6]+
    |psi|^2 = 1.000
==== e(   5) =    14.75413 eV ==== 
     psi = 0.500*[#   2]+0.500*[#   5]+
    |psi|^2 = 0.999
==== e(   6) =    14.86752 eV ==== 
     psi = 0.500*[#   2]+0.500*[#   5]+
    |psi|^2 = 1.000
==== e(   7) =    36.23376 eV ==== 
     psi = 
    |psi|^2 = 0.000
==== e(   8) =    36.93184 eV ==== 
     psi = 
    |psi|^2 = 0.000

 k =   0.0000000000 -0.0833333333  0.1666666667
==== e(   1) =     5.50751 eV ==== 
     psi = 0.992*[#   1]+0.001*[#   2]+0.001*[#   5]+
    |psi|^2 = 0.997
==== e(   2) =    12.68082 eV ==== 
     psi = 0.333*[#   3]+0.333*[#   4]+0.333*[#   6]+
    |psi|^2 = 0.999
==== e(   3) =    12.79576 eV ==== 
     psi = 0.328*[#   3]+0.328*[#   4]+0.328*[#   6]+0.007*[#   2]+0.007*[#   5]+
          +0.003*[#   1]+
    |psi|^2 = 0.999
==== e(   4) =    13.19129 eV ==== 
     psi = 0.333*[#   3]+0.333*[#   4]+0.333*[#   6]+
    |psi|^2 = 1.000
==== e(   5) =    14.54591 eV ==== 
     psi = 0.493*[#   2]+0.493*[#   5]+0.004*[#   3]+0.004*[#   4]+0.004*[#   6]+
    |psi|^2 = 0.999
==== e(   6) =    14.91598 eV ==== 
     psi = 0.498*[#   2]+0.498*[#   5]+0.002*[#   1]+
    |psi|^2 = 1.000
==== e(   7) =    34.13072 eV ==== 
     psi = 
    |psi|^2 = 0.002
==== e(   8) =    36.09846 eV ==== 
     psi = 
    |psi|^2 = 0.001

 k =   0.0000000000 -0.1666666667  0.2500000000
==== e(   1) =     6.54633 eV ==== 
     psi = 0.958*[#   1]+0.009*[#   3]+0.009*[#   4]+0.009*[#   6]+0.006*[#   2]+
          +0.006*[#   5]+
    |psi|^2 = 0.997
==== e(   2) =    12.39246 eV ==== 
     psi = 0.333*[#   3]+0.333*[#   4]+0.333*[#   6]+
    |psi|^2 = 0.999
==== e(   3) =    12.63471 eV ==== 
     psi = 0.288*[#   3]+0.288*[#   4]+0.288*[#   6]+0.050*[#   2]+0.050*[#   5]+
          +0.032*[#   1]+
    |psi|^2 = 0.997
==== e(   4) =    13.77413 eV ==== 
     psi = 0.333*[#   3]+0.333*[#   4]+0.333*[#   6]+
    |psi|^2 = 0.999
==== e(   5) =    14.38820 eV ==== 
     psi = 0.448*[#   2]+0.448*[#   5]+0.034*[#   3]+0.034*[#   4]+0.034*[#   6]+
    |psi|^2 = 0.998
==== e(   6) =    14.96591 eV ==== 
     psi = 0.494*[#   2]+0.494*[#   5]+0.006*[#   1]+0.002*[#   3]+0.002*[#   4]+
          +0.002*[#   6]+
    |psi|^2 = 0.999
==== e(   7) =    30.84029 eV ==== 
     psi = 0.001*[#   2]+0.001*[#   5]+
    |psi|^2 = 0.005
==== e(   8) =    34.44635 eV ==== 
     psi = 
    |psi|^2 = 0.001

 k =   0.0000000000 -0.2500000000  0.3333333333
==== e(   1) =     7.88032 eV ==== 
     psi = 0.818*[#   1]+0.041*[#   3]+0.041*[#   4]+0.041*[#   6]+0.026*[#   2]+
          +0.026*[#   5]+
    |psi|^2 = 0.995
==== e(   2) =    12.07343 eV ==== 
     psi = 0.333*[#   3]+0.333*[#   4]+0.333*[#   6]+
    |psi|^2 = 0.999
==== e(   3) =    12.43503 eV ==== 
     psi = 0.208*[#   3]+0.208*[#   4]+0.208*[#   6]+0.153*[#   1]+0.104*[#   2]+
          +0.104*[#   5]+
    |psi|^2 = 0.984
==== e(   4) =    14.42091 eV ==== 
     psi = 0.378*[#   2]+0.378*[#   5]+0.081*[#   3]+0.081*[#   4]+0.081*[#   6]+
    |psi|^2 = 0.999
==== e(   5) =    14.51361 eV ==== 
     psi = 0.333*[#   3]+0.333*[#   4]+0.333*[#   6]+
    |psi|^2 = 0.999
==== e(   6) =    15.03191 eV ==== 
     psi = 0.489*[#   2]+0.489*[#   5]+0.017*[#   1]+0.002*[#   3]+0.002*[#   4]+
          +0.002*[#   6]+
    |psi|^2 = 0.999
==== e(   7) =    27.27494 eV ==== 
     psi = 0.009*[#   1]+0.002*[#   2]+0.002*[#   3]+0.002*[#   4]+0.002*[#   5]+
          +0.002*[#   6]+
    |psi|^2 = 0.018
==== e(   8) =    32.82167 eV ==== 
     psi = 
    |psi|^2 = 0.001

[...]
==== e(   4) =    13.78204 eV ==== 
     psi = 0.227*[#   3]+0.227*[#   4]+0.227*[#   6]+0.154*[#   2]+0.154*[#   5]+
    |psi|^2 = 0.991
==== e(   5) =    15.08229 eV ==== 
     psi = 0.333*[#   3]+0.333*[#   4]+0.333*[#   6]+
    |psi|^2 = 0.999
==== e(   6) =    16.43078 eV ==== 
     psi = 0.543*[#   1]+0.192*[#   2]+0.192*[#   5]+0.009*[#   3]+0.009*[#   4]+
          +0.009*[#   6]+
    |psi|^2 = 0.952
==== e(   7) =    24.89425 eV ==== 
     psi = 0.059*[#   1]+0.005*[#   3]+0.005*[#   4]+0.005*[#   6]+0.002*[#   2]+
          +0.002*[#   5]+
    |psi|^2 = 0.079
==== e(   8) =    28.96676 eV ==== 
     psi = 0.001*[#   3]+0.001*[#   4]+0.001*[#   6]+
    |psi|^2 = 0.004

 k =   0.0000000000 -0.2500000000  0.6666666667
==== e(   1) =    10.50460 eV ==== 
     psi = 0.286*[#   2]+0.286*[#   5]+0.105*[#   3]+0.105*[#   4]+0.105*[#   6]+
          +0.104*[#   1]+
    |psi|^2 = 0.992
==== e(   2) =    11.58663 eV ==== 
     psi = 0.434*[#   2]+0.434*[#   5]+0.019*[#   1]+0.007*[#   3]+0.007*[#   4]+
          +0.007*[#   6]+
    |psi|^2 = 0.907
==== e(   3) =    12.70741 eV ==== 
     psi = 0.332*[#   3]+0.332*[#   4]+0.332*[#   6]+
    |psi|^2 = 0.996
==== e(   4) =    13.88099 eV ==== 
     psi = 0.197*[#   3]+0.197*[#   4]+0.197*[#   6]+0.195*[#   2]+0.195*[#   5]+
          +0.013*[#   1]+
    |psi|^2 = 0.995
==== e(   5) =    15.57232 eV ==== 
     psi = 0.333*[#   3]+0.333*[#   4]+0.333*[#   6]+
    |psi|^2 = 1.000
==== e(   6) =    17.82333 eV ==== 
     psi = 0.297*[#   1]+0.077*[#   2]+0.077*[#   5]+0.006*[#   3]+0.006*[#   4]+
          +0.006*[#   6]+
    |psi|^2 = 0.468
==== e(   7) =    22.12313 eV ==== 
     psi = 0.545*[#   1]+0.018*[#   3]+0.018*[#   4]+0.018*[#   6]+0.006*[#   2]+
          +0.006*[#   5]+
    |psi|^2 = 0.612
==== e(   8) =    28.15776 eV ==== 
     psi = 0.001*[#   3]+0.001*[#   4]+0.001*[#   6]+
    |psi|^2 = 0.004

 k =  -0.0833333333 -0.0833333333  0.5833333333
==== e(   1) =     9.98181 eV ==== 
     psi = 0.412*[#   1]+0.258*[#   2]+0.258*[#   5]+0.021*[#   3]+0.021*[#   4]+
          +0.021*[#   6]+
    |psi|^2 = 0.991
==== e(   2) =    11.76304 eV ==== 
     psi = 0.431*[#   2]+0.431*[#   5]+0.043*[#   3]+0.043*[#   4]+0.043*[#   6]+
    |psi|^2 = 0.991
==== e(   3) =    13.06285 eV ==== 
     psi = 0.314*[#   3]+0.314*[#   4]+0.314*[#   6]+0.023*[#   2]+0.023*[#   5]+
          +0.004*[#   1]+
    |psi|^2 = 0.992
==== e(   4) =    13.69209 eV ==== 
     psi = 0.288*[#   3]+0.288*[#   4]+0.288*[#   6]+0.065*[#   2]+0.065*[#   5]+
    |psi|^2 = 0.995
==== e(   5) =    14.81199 eV ==== 
     psi = 0.316*[#   3]+0.316*[#   4]+0.316*[#   6]+0.024*[#   2]+0.024*[#   5]+
          +0.003*[#   1]+
    |psi|^2 = 0.999
==== e(   6) =    16.36474 eV ==== 
     psi = 0.554*[#   1]+0.194*[#   2]+0.194*[#   5]+0.013*[#   3]+0.013*[#   4]+
          +0.013*[#   6]+
    |psi|^2 = 0.981
==== e(   7) =    26.91299 eV ==== 
     psi = 0.002*[#   2]+0.002*[#   3]+0.002*[#   4]+0.002*[#   5]+0.002*[#   6]+
    |psi|^2 = 0.010
==== e(   8) =    27.19084 eV ==== 
     psi = 0.023*[#   1]+0.003*[#   3]+0.003*[#   4]+0.003*[#   6]+
    |psi|^2 = 0.031

 k =  -0.0833333333 -0.1666666667  0.6666666667
==== e(   1) =    10.61387 eV ==== 
     psi = 0.343*[#   2]+0.343*[#   5]+0.160*[#   1]+0.045*[#   3]+0.045*[#   4]+
          +0.045*[#   6]+
    |psi|^2 = 0.980
==== e(   2) =    11.34971 eV ==== 
     psi = 0.436*[#   2]+0.436*[#   5]+0.033*[#   3]+0.033*[#   4]+0.033*[#   6]+
          +0.007*[#   1]+
    |psi|^2 = 0.976
==== e(   3) =    12.91171 eV ==== 
     psi = 0.310*[#   3]+0.310*[#   4]+0.310*[#   6]+0.030*[#   2]+0.030*[#   5]+
          +0.001*[#   1]+
    |psi|^2 = 0.991
==== e(   4) =    14.04884 eV ==== 
     psi = 0.272*[#   3]+0.272*[#   4]+0.272*[#   6]+0.087*[#   2]+0.087*[#   5]+
          +0.004*[#   1]+
    |psi|^2 = 0.994
==== e(   5) =    15.24505 eV ==== 
     psi = 0.311*[#   3]+0.311*[#   4]+0.311*[#   6]+0.027*[#   2]+0.027*[#   5]+
          +0.012*[#   1]+
    |psi|^2 = 0.998
==== e(   6) =    17.84296 eV ==== 
     psi = 0.608*[#   1]+0.072*[#   2]+0.072*[#   5]+0.020*[#   3]+0.020*[#   4]+
          +0.020*[#   6]+
    |psi|^2 = 0.812
==== e(   7) =    23.75757 eV ==== 
     psi = 0.153*[#   1]+0.007*[#   3]+0.007*[#   4]+0.007*[#   6]+0.003*[#   2]+
          +0.003*[#   5]+
    |psi|^2 = 0.180
==== e(   8) =    26.07648 eV ==== 
     psi = 0.041*[#   1]+0.003*[#   3]+0.003*[#   4]+0.003*[#   6]+
    |psi|^2 = 0.050

 k =  -0.0833333333  0.7500000000 -0.2500000000
==== e(   1) =    10.80718 eV ==== 
     psi = 0.368*[#   2]+0.368*[#   5]+0.070*[#   3]+0.070*[#   4]+0.070*[#   6]+
          +0.043*[#   1]+
    |psi|^2 = 0.991
==== e(   2) =    11.24562 eV ==== 
     psi = 0.452*[#   2]+0.452*[#   5]+0.009*[#   3]+0.009*[#   4]+0.009*[#   6]+
    |psi|^2 = 0.930
==== e(   3) =    12.81368 eV ==== 
     psi = 0.313*[#   3]+0.313*[#   4]+0.313*[#   6]+0.022*[#   2]+0.022*[#   5]+
          +0.012*[#   1]+
    |psi|^2 = 0.995
==== e(   4) =    14.15051 eV ==== 
     psi = 0.260*[#   3]+0.260*[#   4]+0.260*[#   6]+0.101*[#   2]+0.101*[#   5]+
          +0.017*[#   1]+
    |psi|^2 = 0.997
==== e(   5) =    15.45367 eV ==== 
     psi = 0.319*[#   3]+0.319*[#   4]+0.319*[#   6]+0.018*[#   2]+0.018*[#   5]+
    |psi|^2 = 0.993
==== e(   6) =    19.31326 eV ==== 
     psi = 0.029*[#   2]+0.029*[#   5]+0.006*[#   3]+0.006*[#   4]+0.006*[#   6]+
    |psi|^2 = 0.075
==== e(   7) =    21.70230 eV ==== 
     psi = 0.833*[#   1]+0.021*[#   3]+0.021*[#   4]+0.021*[#   6]+0.007*[#   2]+
          +0.007*[#   5]+
    |psi|^2 = 0.909
==== e(   8) =    25.69688 eV ==== 
     psi = 0.068*[#   1]+0.003*[#   3]+0.003*[#   4]+0.003*[#   6]+
    |psi|^2 = 0.077

 k =  -0.1666666667  0.8333333333 -0.2500000000
==== e(   1) =    10.98064 eV ==== 
     psi = 0.427*[#   2]+0.427*[#   5]+0.028*[#   1]+0.027*[#   3]+0.027*[#   4]+
          +0.027*[#   6]+
    |psi|^2 = 0.962
==== e(   2) =    11.07953 eV ==== 
     psi = 0.439*[#   2]+0.439*[#   5]+0.033*[#   3]+0.033*[#   4]+0.033*[#   6]+
    |psi|^2 = 0.977
==== e(   3) =    12.70535 eV ==== 
     psi = 0.314*[#   3]+0.314*[#   4]+0.314*[#   6]+0.026*[#   1]+0.013*[#   2]+
          +0.013*[#   5]+
    |psi|^2 = 0.995
==== e(   4) =    14.62074 eV ==== 
     psi = 0.294*[#   3]+0.294*[#   4]+0.294*[#   6]+0.054*[#   2]+0.054*[#   5]+
    |psi|^2 = 0.991
==== e(   5) =    15.14705 eV ==== 
     psi = 0.302*[#   3]+0.302*[#   4]+0.302*[#   6]+0.039*[#   2]+0.039*[#   5]+
          +0.007*[#   1]+
    |psi|^2 = 0.992
==== e(   6) =    19.95857 eV ==== 
     psi = 0.311*[#   1]+0.020*[#   2]+0.020*[#   5]+0.013*[#   3]+0.013*[#   4]+
          +0.013*[#   6]+
    |psi|^2 = 0.390
==== e(   7) =    22.64315 eV ==== 
     psi = 0.006*[#   2]+0.006*[#   5]+0.006*[#   3]+0.006*[#   4]+0.006*[#   6]+
    |psi|^2 = 0.029
==== e(   8) =    23.48194 eV ==== 
     psi = 0.601*[#   1]+0.010*[#   3]+0.010*[#   4]+0.010*[#   6]+
    |psi|^2 = 0.630

 k =   0.5833333333 -0.5833333333  0.4166666667
==== e(   1) =    11.22466 eV ==== 
     psi = 0.273*[#   3]+0.273*[#   4]+0.273*[#   6]+0.123*[#   1]+
    |psi|^2 = 0.942
==== e(   2) =    11.33607 eV ==== 
     psi = 0.317*[#   3]+0.317*[#   4]+0.317*[#   6]+0.015*[#   2]+0.015*[#   5]+
    |psi|^2 = 0.983
==== e(   3) =    11.33607 eV ==== 
     psi = 0.317*[#   3]+0.317*[#   4]+0.317*[#   6]+0.015*[#   2]+0.015*[#   5]+
    |psi|^2 = 0.983
==== e(   4) =    15.08208 eV ==== 
     psi = 0.484*[#   2]+0.484*[#   5]+0.010*[#   3]+0.010*[#   4]+0.010*[#   6]+
    |psi|^2 = 1.000
==== e(   5) =    15.08208 eV ==== 
     psi = 0.484*[#   2]+0.484*[#   5]+0.010*[#   3]+0.010*[#   4]+0.010*[#   6]+
    |psi|^2 = 1.000
==== e(   6) =    19.14698 eV ==== 
     psi = 0.454*[#   1]+0.059*[#   3]+0.059*[#   4]+0.059*[#   6]+
    |psi|^2 = 0.632
==== e(   7) =    24.11472 eV ==== 
     psi = 0.005*[#   3]+0.005*[#   4]+0.005*[#   6]+
    |psi|^2 = 0.017
==== e(   8) =    24.11472 eV ==== 
     psi = 0.005*[#   3]+0.005*[#   4]+0.005*[#   6]+
    |psi|^2 = 0.017

 k =   0.5000000000 -0.5000000000  0.4166666667
==== e(   1) =    11.23074 eV ==== 
     psi = 0.308*[#   3]+0.308*[#   4]+0.308*[#   6]+0.017*[#   1]+0.015*[#   2]+
          +0.015*[#   5]+
    |psi|^2 = 0.973
==== e(   2) =    11.30693 eV ==== 
     psi = 0.327*[#   3]+0.327*[#   4]+0.327*[#   6]+
    |psi|^2 = 0.981
==== e(   3) =    11.54233 eV ==== 
     psi = 0.312*[#   3]+0.312*[#   4]+0.312*[#   6]+
    |psi|^2 = 0.936
==== e(   4) =    15.09860 eV ==== 
     psi = 0.484*[#   2]+0.484*[#   5]+0.011*[#   3]+0.011*[#   4]+0.011*[#   6]+
    |psi|^2 = 1.000
==== e(   5) =    15.13231 eV ==== 
     psi = 0.500*[#   2]+0.500*[#   5]+
    |psi|^2 = 1.000
==== e(   6) =    20.83972 eV ==== 
     psi = 0.021*[#   3]+0.021*[#   4]+0.021*[#   6]+
    |psi|^2 = 0.064
==== e(   7) =    22.03662 eV ==== 
     psi = 0.414*[#   1]+0.014*[#   3]+0.014*[#   4]+0.014*[#   6]+
    |psi|^2 = 0.459
==== e(   8) =    23.86388 eV ==== 
     psi = 0.006*[#   3]+0.006*[#   4]+0.006*[#   6]+
    |psi|^2 = 0.019

 k =   0.0000000000  0.0000000000  0.5833333333
==== e(   1) =     9.85495 eV ==== 
     psi = 0.442*[#   1]+0.276*[#   2]+0.276*[#   5]+
    |psi|^2 = 0.994
==== e(   2) =    11.86557 eV ==== 
     psi = 0.497*[#   2]+0.497*[#   5]+
    |psi|^2 = 0.994
==== e(   3) =    13.50866 eV ==== 
     psi = 0.331*[#   3]+0.331*[#   4]+0.331*[#   6]+
    |psi|^2 = 0.994
==== e(   4) =    13.50866 eV ==== 
     psi = 0.331*[#   3]+0.331*[#   4]+0.331*[#   6]+
    |psi|^2 = 0.994
==== e(   5) =    14.45554 eV ==== 
     psi = 0.333*[#   3]+0.333*[#   4]+0.333*[#   6]+
    |psi|^2 = 1.000
==== e(   6) =    16.19985 eV ==== 
     psi = 0.549*[#   1]+0.224*[#   2]+0.224*[#   5]+
    |psi|^2 = 0.996
==== e(   7) =    28.44516 eV ==== 
     psi = 0.002*[#   3]+0.002*[#   4]+0.002*[#   6]+
    |psi|^2 = 0.006
==== e(   8) =    28.44516 eV ==== 
     psi = 0.002*[#   3]+0.002*[#   4]+0.002*[#   6]+
    |psi|^2 = 0.006

 k =   0.0000000000 -0.0833333333  0.6666666667
==== e(   1) =    10.41119 eV ==== 
     psi = 0.382*[#   2]+0.382*[#   5]+0.203*[#   1]+0.007*[#   3]+0.007*[#   4]+
          +0.007*[#   6]+
    |psi|^2 = 0.989
==== e(   2) =    11.32501 eV ==== 
     psi = 0.482*[#   2]+0.482*[#   5]+0.009*[#   3]+0.009*[#   4]+0.009*[#   6]+
    |psi|^2 = 0.992
==== e(   3) =    13.65041 eV ==== 
     psi = 0.331*[#   3]+0.331*[#   4]+0.331*[#   6]+
    |psi|^2 = 0.993
==== e(   4) =    13.88300 eV ==== 
     psi = 0.309*[#   3]+0.309*[#   4]+0.309*[#   6]+0.031*[#   2]+0.031*[#   5]+
          +0.004*[#   1]+
    |psi|^2 = 0.991
==== e(   5) =    14.99854 eV ==== 
     psi = 0.333*[#   3]+0.333*[#   4]+0.333*[#   6]+
    |psi|^2 = 0.999
==== e(   6) =    17.32664 eV ==== 
     psi = 0.739*[#   1]+0.101*[#   2]+0.101*[#   5]+0.004*[#   3]+0.004*[#   4]+
          +0.004*[#   6]+
    |psi|^2 = 0.954
==== e(   7) =    25.57029 eV ==== 
     psi = 0.033*[#   1]+0.004*[#   3]+0.004*[#   4]+0.004*[#   6]+
    |psi|^2 = 0.046
==== e(   8) =    26.92401 eV ==== 
     psi = 0.003*[#   3]+0.003*[#   4]+0.003*[#   6]+
    |psi|^2 = 0.008

 k =   0.0000000000 -0.1666666667  0.7500000000
==== e(   1) =    10.69728 eV ==== 
     psi = 0.433*[#   2]+0.433*[#   5]+0.051*[#   1]+0.023*[#   3]+0.023*[#   4]+
          +0.023*[#   6]+
    |psi|^2 = 0.986
==== e(   2) =    10.98539 eV ==== 
     psi = 0.476*[#   2]+0.476*[#   5]+0.007*[#   3]+0.007*[#   4]+0.007*[#   6]+
    |psi|^2 = 0.972
==== e(   3) =    13.62920 eV ==== 
     psi = 0.331*[#   3]+0.331*[#   4]+0.331*[#   6]+
    |psi|^2 = 0.993
==== e(   4) =    14.05150 eV ==== 
     psi = 0.287*[#   3]+0.287*[#   4]+0.287*[#   6]+0.054*[#   2]+0.054*[#   5]+
          +0.028*[#   1]+
    |psi|^2 = 0.996
==== e(   5) =    15.49213 eV ==== 
     psi = 0.333*[#   3]+0.333*[#   4]+0.333*[#   6]+
    |psi|^2 = 0.999
==== e(   6) =    19.21789 eV ==== 
     psi = 0.436*[#   1]+0.031*[#   2]+0.031*[#   5]+0.005*[#   3]+0.005*[#   4]+
          +0.005*[#   6]+
    |psi|^2 = 0.514
==== e(   7) =    22.59362 eV ==== 
     psi = 0.432*[#   1]+0.011*[#   3]+0.011*[#   4]+0.011*[#   6]+0.004*[#   2]+
          +0.004*[#   5]+
    |psi|^2 = 0.474
==== e(   8) =    26.03403 eV ==== 
     psi = 0.002*[#   3]+0.002*[#   4]+0.002*[#   6]+
    |psi|^2 = 0.007

 k =  -0.0833333333 -0.0833333333  0.7500000000
==== e(   1) =    10.61703 eV ==== 
     psi = 0.452*[#   2]+0.452*[#   5]+0.062*[#   1]+0.005*[#   3]+0.005*[#   4]+
          +0.005*[#   6]+
    |psi|^2 = 0.983
==== e(   2) =    10.92531 eV ==== 
     psi = 0.483*[#   2]+0.483*[#   5]+0.008*[#   3]+0.008*[#   4]+0.008*[#   6]+
    |psi|^2 = 0.991
==== e(   3) =    13.73404 eV ==== 
     psi = 0.322*[#   3]+0.322*[#   4]+0.322*[#   6]+0.013*[#   1]+0.007*[#   2]+
          +0.007*[#   5]+
    |psi|^2 = 0.993
==== e(   4) =    14.46414 eV ==== 
     psi = 0.321*[#   3]+0.321*[#   4]+0.321*[#   6]+0.014*[#   2]+0.014*[#   5]+
    |psi|^2 = 0.990
==== e(   5) =    15.26135 eV ==== 
     psi = 0.326*[#   3]+0.326*[#   4]+0.326*[#   6]+0.007*[#   1]+0.006*[#   2]+
          +0.006*[#   5]+
    |psi|^2 = 0.999
==== e(   6) =    19.03424 eV ==== 
     psi = 0.698*[#   1]+0.034*[#   2]+0.034*[#   5]+0.007*[#   3]+0.007*[#   4]+
          +0.007*[#   6]+
    |psi|^2 = 0.787
==== e(   7) =    24.32469 eV ==== 
     psi = 0.004*[#   3]+0.004*[#   4]+0.004*[#   6]+0.002*[#   2]+0.002*[#   5]+
    |psi|^2 = 0.015
==== e(   8) =    24.56707 eV ==== 
     psi = 0.172*[#   1]+0.005*[#   3]+0.005*[#   4]+0.005*[#   6]+
    |psi|^2 = 0.187

 k =  -0.0833333333  0.8333333333 -0.1666666667
==== e(   1) =    10.71660 eV ==== 
     psi = 0.474*[#   2]+0.474*[#   5]+0.011*[#   3]+0.011*[#   4]+0.011*[#   6]+
          +0.008*[#   1]+
    |psi|^2 = 0.989
==== e(   2) =    10.73437 eV ==== 
     psi = 0.482*[#   2]+0.482*[#   5]+0.003*[#   3]+0.003*[#   4]+0.003*[#   6]+
    |psi|^2 = 0.975
==== e(   3) =    13.70432 eV ==== 
     psi = 0.322*[#   3]+0.322*[#   4]+0.322*[#   6]+0.024*[#   1]+0.003*[#   2]+
          +0.003*[#   5]+
    |psi|^2 = 0.997
==== e(   4) =    14.73649 eV ==== 
     psi = 0.317*[#   3]+0.317*[#   4]+0.317*[#   6]+0.017*[#   2]+0.017*[#   5]+
          +0.007*[#   1]+
    |psi|^2 = 0.992
==== e(   5) =    15.38056 eV ==== 
     psi = 0.328*[#   3]+0.328*[#   4]+0.328*[#   6]+0.006*[#   2]+0.006*[#   5]+
    |psi|^2 = 0.995
==== e(   6) =    20.96458 eV ==== 
     psi = 0.010*[#   2]+0.010*[#   5]+0.002*[#   3]+0.002*[#   4]+0.002*[#   6]+
    |psi|^2 = 0.028
==== e(   7) =    22.09075 eV ==== 
     psi = 0.685*[#   1]+0.011*[#   3]+0.011*[#   4]+0.011*[#   6]+0.004*[#   2]+
          +0.004*[#   5]+
    |psi|^2 = 0.727
==== e(   8) =    24.03358 eV ==== 
     psi = 0.203*[#   1]+0.005*[#   3]+0.005*[#   4]+0.005*[#   6]+
    |psi|^2 = 0.218

 k =   0.0000000000  0.0000000000  0.7500000000
==== e(   1) =    10.47674 eV ==== 
     psi = 0.458*[#   2]+0.458*[#   5]+0.075*[#   1]+
    |psi|^2 = 0.991
==== e(   2) =    10.87688 eV ==== 
     psi = 0.497*[#   2]+0.497*[#   5]+
    |psi|^2 = 0.994
==== e(   3) =    14.40420 eV ==== 
     psi = 0.330*[#   3]+0.330*[#   4]+0.330*[#   6]+
    |psi|^2 = 0.989
==== e(   4) =    14.40420 eV ==== 
     psi = 0.330*[#   3]+0.330*[#   4]+0.330*[#   6]+
    |psi|^2 = 0.989
==== e(   5) =    15.05700 eV ==== 
     psi = 0.333*[#   3]+0.333*[#   4]+0.333*[#   6]+
    |psi|^2 = 1.000
==== e(   6) =    18.65371 eV ==== 
     psi = 0.850*[#   1]+0.041*[#   2]+0.041*[#   5]+
    |psi|^2 = 0.933
==== e(   7) =    25.26865 eV ==== 
     psi = 0.003*[#   3]+0.003*[#   4]+0.003*[#   6]+
    |psi|^2 = 0.010
==== e(   8) =    25.26865 eV ==== 
     psi = 0.003*[#   3]+0.003*[#   4]+0.003*[#   6]+
    |psi|^2 = 0.010

 k =   0.0000000000 -0.0833333333  0.8333333333
==== e(   1) =    10.47614 eV ==== 
     psi = 0.486*[#   2]+0.486*[#   5]+0.014*[#   1]+
    |psi|^2 = 0.988
==== e(   2) =    10.57653 eV ==== 
     psi = 0.494*[#   2]+0.494*[#   5]+0.002*[#   3]+0.002*[#   4]+0.002*[#   6]+
    |psi|^2 = 0.993
==== e(   3) =    14.61336 eV ==== 
     psi = 0.330*[#   3]+0.330*[#   4]+0.330*[#   6]+
    |psi|^2 = 0.991
==== e(   4) =    14.75270 eV ==== 
     psi = 0.324*[#   3]+0.324*[#   4]+0.324*[#   6]+0.014*[#   1]+0.005*[#   2]+
          +0.005*[#   5]+
    |psi|^2 = 0.994
==== e(   5) =    15.42454 eV ==== 
     psi = 0.333*[#   3]+0.333*[#   4]+0.333*[#   6]+
    |psi|^2 = 0.999
==== e(   6) =    20.61695 eV ==== 
     psi = 0.580*[#   1]+0.011*[#   2]+0.011*[#   5]+0.002*[#   3]+0.002*[#   4]+
          +0.002*[#   6]+
    |psi|^2 = 0.608
==== e(   7) =    23.18544 eV ==== 
     psi = 0.231*[#   1]+0.005*[#   3]+0.005*[#   4]+0.005*[#   6]+0.001*[#   2]+
          +0.001*[#   5]+
    |psi|^2 = 0.248
==== e(   8) =    24.27554 eV ==== 
     psi = 0.003*[#   3]+0.003*[#   4]+0.003*[#   6]+
    |psi|^2 = 0.009

 k =  -0.0833333333  0.9166666667 -0.0833333333
==== e(   1) =    10.42851 eV ==== 
     psi = 0.494*[#   2]+0.494*[#   5]+
    |psi|^2 = 0.991
==== e(   2) =    10.42851 eV ==== 
     psi = 0.494*[#   2]+0.494*[#   5]+
    |psi|^2 = 0.991
==== e(   3) =    14.70344 eV ==== 
     psi = 0.328*[#   3]+0.328*[#   4]+0.328*[#   6]+0.013*[#   1]+
    |psi|^2 = 0.996
==== e(   4) =    15.32177 eV ==== 
     psi = 0.331*[#   3]+0.331*[#   4]+0.331*[#   6]+0.001*[#   2]+0.001*[#   5]+
    |psi|^2 = 0.996
==== e(   5) =    15.32177 eV ==== 
     psi = 0.331*[#   3]+0.331*[#   4]+0.331*[#   6]+0.001*[#   2]+0.001*[#   5]+
    |psi|^2 = 0.996
==== e(   6) =    22.46671 eV ==== 
     psi = 0.002*[#   2]+0.002*[#   5]+0.001*[#   3]+0.001*[#   4]+0.001*[#   6]+
    |psi|^2 = 0.009
==== e(   7) =    22.46671 eV ==== 
     psi = 0.002*[#   2]+0.002*[#   5]+0.001*[#   3]+0.001*[#   4]+0.001*[#   6]+
    |psi|^2 = 0.009
==== e(   8) =    22.95610 eV ==== 
     psi = 0.732*[#   1]+0.005*[#   3]+0.005*[#   4]+0.005*[#   6]+
    |psi|^2 = 0.748

 k =   0.0000000000  0.0000000000  0.9166666667
==== e(   1) =    10.30107 eV ==== 
     psi = 0.496*[#   2]+0.496*[#   5]+0.002*[#   1]+
    |psi|^2 = 0.993
==== e(   2) =    10.32706 eV ==== 
     psi = 0.498*[#   2]+0.498*[#   5]+
    |psi|^2 = 0.995
==== e(   3) =    15.29960 eV ==== 
     psi = 0.332*[#   3]+0.332*[#   4]+0.332*[#   6]+
    |psi|^2 = 0.996
==== e(   4) =    15.29960 eV ==== 
     psi = 0.332*[#   3]+0.332*[#   4]+0.332*[#   6]+
    |psi|^2 = 0.996
==== e(   5) =    15.41094 eV ==== 
     psi = 0.333*[#   3]+0.333*[#   4]+0.333*[#   6]+
    |psi|^2 = 1.000
==== e(   6) =    22.07763 eV ==== 
     psi = 0.441*[#   1]+0.002*[#   2]+0.002*[#   5]+
    |psi|^2 = 0.445
==== e(   7) =    23.18813 eV ==== 
     psi = 0.001*[#   3]+0.001*[#   4]+0.001*[#   6]+
    |psi|^2 = 0.004
==== e(   8) =    23.18813 eV ==== 
     psi = 0.001*[#   3]+0.001*[#   4]+0.001*[#   6]+
    |psi|^2 = 0.004

Lowdin Charges: 

           1           2  0.38075804263976548        0.0000000000000000        4.7500174796317225     
           2           2  0.45239086861347644        0.0000000000000000        2.3057512798242610     
     Atom #   1: total charge =   7.8889, s =  0.8331, p =  0.0000, d =  7.0558, 
                 spin up      =   5.1308, s =  0.3808, 
                 spin up      =   5.1308, p =  0.0000, pz=  0.0000, px=  0.0000, py=  0.0000, 
                 spin up      =   5.1308, d =  4.7500, dz2=  0.9771, dxz=  0.9320, dyz=  0.9320, dx2-y2=  0.9771, dxy=  0.9320, 
                 spin down    =   2.7581, s =  0.4524, 
                 spin down    =   2.7581, p =  0.0000, pz=  0.0000, px=  0.0000, py=  0.0000, 
                 spin down    =   2.7581, d =  2.3058, dz2=  0.3514, dxz=  0.5343, dyz=  0.5343, dx2-y2=  0.3514, dxy=  0.5343, 
                 polarization =   2.3726, s = -0.0716, p =  0.0000, d =  2.4443, 
     Spilling Parameter:   0.0139

     PROJWFC      :      1.29s CPU      1.36s WALL


   This run was terminated on:  15:48:32  14Sep2019            

=------------------------------------------------------------------------------=
   JOB DONE.
=------------------------------------------------------------------------------=
