
     Program PWSCF v.6.7MaX starts on 16Apr2021 at 17:53: 7 

     This program is part of the open-source Quantum ESPRESSO suite
     for quantum simulation of materials; please cite
         "P. Giannozzi et al., J. Phys.:Condens. Matter 21 395502 (2009);
         "P. Giannozzi et al., J. Phys.:Condens. Matter 29 465901 (2017);
          URL http://www.quantum-espresso.org", 
     in publications or presentations arising from this work. More details at
     http://www.quantum-espresso.org/quote

     Parallel version (MPI), running on     8 processors

     MPI processes distributed on     1 nodes
     R & G space division:  proc/nbgrp/npool/nimage =       8
     Waiting for input...
     Reading input from standard input

     Current dimensions of program PWSCF are:
     Max number of different atomic species (ntypx) = 10
     Max number of k-points (npk) =  40000
     Max angular momentum in pseudopotentials (lmaxx) =  3
     file C.pz-rrkjus.UPF: wavefunction(s)  2S renormalized

     Subspace diagonalization in iterative solution of the eigenvalue problem:
     a serial algorithm will be used

 
     Parallelization info
     --------------------
     sticks:   dense  smooth     PW     G-vecs:    dense   smooth      PW
     Min          45      22      7                 1787      630     127
     Max          46      24      8                 1796      634     134
     Sum         361     187     61                14339     5053    1045
 


     bravais-lattice index     =            4
     lattice parameter (alat)  =       4.6601  a.u.
     unit-cell volume          =     227.8448 (a.u.)^3
     number of atoms/cell      =            4
     number of atomic types    =            1
     number of electrons       =        16.00
     number of Kohn-Sham states=           12
     kinetic-energy cutoff     =      30.0000  Ry
     charge density cutoff     =     240.0000  Ry
     scf convergence threshold =      1.0E-09
     mixing beta               =       0.3000
     number of iterations used =            8  plain     mixing
     energy convergence thresh.=      1.0E-05
     force convergence thresh. =      1.0E-04
     press convergence thresh. =      5.0E-01
     Exchange-correlation= SLA  PZ   NOGX NOGC
                           (   1   1   0   0   0   0   0)
     nstep                     =           50


     celldm(1)=   4.660065  celldm(2)=   0.000000  celldm(3)=   2.599757
     celldm(4)=   0.000000  celldm(5)=   0.000000  celldm(6)=   0.000000

     crystal axes: (cart. coord. in units of alat)
               a(1) = (   1.000000   0.000000   0.000000 )  
               a(2) = (  -0.500000   0.866025   0.000000 )  
               a(3) = (   0.000000   0.000000   2.599757 )  

     reciprocal axes: (cart. coord. in units 2 pi/alat)
               b(1) = (  1.000000  0.577350  0.000000 )  
               b(2) = (  0.000000  1.154701  0.000000 )  
               b(3) = (  0.000000  0.000000  0.384651 )  


     PseudoPot. # 1 for C  read from file:
     ../../pseudo/C.pz-rrkjus.UPF
     MD5 check sum: f3d00d2fdf13a37a7282bbbab8ba99e3
     Pseudo is Ultrasoft, Zval =  4.0
     Generated by new atomic code, or converted to UPF format
     Using radial grid of 1425 points,  4 beta functions with: 
                l(1) =   0
                l(2) =   0
                l(3) =   1
                l(4) =   1
     Q(r) pseudized with 0 coefficients 


     atomic species   valence    mass     pseudopotential
        C              4.00    12.01100     C ( 1.00)

     24 Sym. Ops., with inversion, found (12 have fractional translation)


                                    s                        frac. trans.

      isym =  1     identity                                     

 cryst.   s( 1) = (     1          0          0      )
                  (     0          1          0      )
                  (     0          0          1      )

 cart.    s( 1) = (  1.0000000  0.0000000  0.0000000 )
                  (  0.0000000  1.0000000  0.0000000 )
                  (  0.0000000  0.0000000  1.0000000 )


      isym =  2     180 deg rotation - cart. axis [0,0,1]        

 cryst.   s( 2) = (    -1          0          0      )    f =(  0.0000000 )
                  (     0         -1          0      )       (  0.0000000 )
                  (     0          0          1      )       (  0.5000000 )

 cart.    s( 2) = ( -1.0000000  0.0000000  0.0000000 )    f =(  0.0000000 )
                  (  0.0000000 -1.0000000  0.0000000 )       (  0.0000000 )
                  (  0.0000000  0.0000000  1.0000000 )       (  1.2998783 )


      isym =  3     180 deg rotation - cart. axis [0,1,0]        

 cryst.   s( 3) = (    -1          0          0      )    f =(  0.0000000 )
                  (     1          1          0      )       (  0.0000000 )
                  (     0          0         -1      )       (  0.5000000 )

 cart.    s( 3) = ( -1.0000000  0.0000000  0.0000000 )    f =(  0.0000000 )
                  (  0.0000000  1.0000000  0.0000000 )       (  0.0000000 )
                  (  0.0000000  0.0000000 -1.0000000 )       (  1.2998783 )


      isym =  4     180 deg rotation - cart. axis [1,0,0]        

 cryst.   s( 4) = (     1          0          0      )
                  (    -1         -1          0      )
                  (     0          0         -1      )

 cart.    s( 4) = (  1.0000000  0.0000000  0.0000000 )
                  (  0.0000000 -1.0000000  0.0000000 )
                  (  0.0000000  0.0000000 -1.0000000 )


      isym =  5      60 deg rotation - cryst. axis [0,0,1]       

 cryst.   s( 5) = (     1          1          0      )    f =(  0.0000000 )
                  (    -1          0          0      )       (  0.0000000 )
                  (     0          0          1      )       (  0.5000000 )

 cart.    s( 5) = (  0.5000000 -0.8660254  0.0000000 )    f =(  0.0000000 )
                  (  0.8660254  0.5000000  0.0000000 )       (  0.0000000 )
                  (  0.0000000  0.0000000  1.0000000 )       (  1.2998783 )


      isym =  6      60 deg rotation - cryst. axis [0,0,-1]      

 cryst.   s( 6) = (     0         -1          0      )    f =(  0.0000000 )
                  (     1          1          0      )       (  0.0000000 )
                  (     0          0          1      )       (  0.5000000 )

 cart.    s( 6) = (  0.5000000  0.8660254  0.0000000 )    f =(  0.0000000 )
                  ( -0.8660254  0.5000000  0.0000000 )       (  0.0000000 )
                  (  0.0000000  0.0000000  1.0000000 )       (  1.2998783 )


      isym =  7     120 deg rotation - cryst. axis [0,0,1]       

 cryst.   s( 7) = (     0          1          0      )
                  (    -1         -1          0      )
                  (     0          0          1      )

 cart.    s( 7) = ( -0.5000000 -0.8660254  0.0000000 )
                  (  0.8660254 -0.5000000  0.0000000 )
                  (  0.0000000  0.0000000  1.0000000 )


      isym =  8     120 deg rotation - cryst. axis [0,0,-1]      

 cryst.   s( 8) = (    -1         -1          0      )
                  (     1          0          0      )
                  (     0          0          1      )

 cart.    s( 8) = ( -0.5000000  0.8660254  0.0000000 )
                  ( -0.8660254 -0.5000000  0.0000000 )
                  (  0.0000000  0.0000000  1.0000000 )


      isym =  9     180 deg rotation - cryst. axis [1,-1,0]      

 cryst.   s( 9) = (     0         -1          0      )    f =(  0.0000000 )
                  (    -1          0          0      )       (  0.0000000 )
                  (     0          0         -1      )       (  0.5000000 )

 cart.    s( 9) = (  0.5000000 -0.8660254  0.0000000 )    f =(  0.0000000 )
                  ( -0.8660254 -0.5000000  0.0000000 )       (  0.0000000 )
                  (  0.0000000  0.0000000 -1.0000000 )       (  1.2998783 )


      isym = 10     180 deg rotation - cryst. axis [2,1,0]       

 cryst.   s(10) = (     1          1          0      )    f =(  0.0000000 )
                  (     0         -1          0      )       (  0.0000000 )
                  (     0          0         -1      )       (  0.5000000 )

 cart.    s(10) = (  0.5000000  0.8660254  0.0000000 )    f =(  0.0000000 )
                  (  0.8660254 -0.5000000  0.0000000 )       (  0.0000000 )
                  (  0.0000000  0.0000000 -1.0000000 )       (  1.2998783 )


      isym = 11     180 deg rotation - cryst. axis [0,1,0]       

 cryst.   s(11) = (    -1         -1          0      )
                  (     0          1          0      )
                  (     0          0         -1      )

 cart.    s(11) = ( -0.5000000 -0.8660254  0.0000000 )
                  ( -0.8660254  0.5000000  0.0000000 )
                  (  0.0000000  0.0000000 -1.0000000 )


      isym = 12     180 deg rotation - cryst. axis [1,1,0]       

 cryst.   s(12) = (     0          1          0      )
                  (     1          0          0      )
                  (     0          0         -1      )

 cart.    s(12) = ( -0.5000000  0.8660254  0.0000000 )
                  (  0.8660254  0.5000000  0.0000000 )
                  (  0.0000000  0.0000000 -1.0000000 )


      isym = 13     inversion                                    

 cryst.   s(13) = (    -1          0          0      )
                  (     0         -1          0      )
                  (     0          0         -1      )

 cart.    s(13) = ( -1.0000000  0.0000000  0.0000000 )
                  (  0.0000000 -1.0000000  0.0000000 )
                  (  0.0000000  0.0000000 -1.0000000 )


      isym = 14     inv. 180 deg rotation - cart. axis [0,0,1]   

 cryst.   s(14) = (     1          0          0      )    f =(  0.0000000 )
                  (     0          1          0      )       (  0.0000000 )
                  (     0          0         -1      )       (  0.5000000 )

 cart.    s(14) = (  1.0000000  0.0000000  0.0000000 )    f =(  0.0000000 )
                  (  0.0000000  1.0000000  0.0000000 )       (  0.0000000 )
                  (  0.0000000  0.0000000 -1.0000000 )       (  1.2998783 )


      isym = 15     inv. 180 deg rotation - cart. axis [0,1,0]   

 cryst.   s(15) = (     1          0          0      )    f =(  0.0000000 )
                  (    -1         -1          0      )       (  0.0000000 )
                  (     0          0          1      )       (  0.5000000 )

 cart.    s(15) = (  1.0000000  0.0000000  0.0000000 )    f =(  0.0000000 )
                  (  0.0000000 -1.0000000  0.0000000 )       (  0.0000000 )
                  (  0.0000000  0.0000000  1.0000000 )       (  1.2998783 )


      isym = 16     inv. 180 deg rotation - cart. axis [1,0,0]   

 cryst.   s(16) = (    -1          0          0      )
                  (     1          1          0      )
                  (     0          0          1      )

 cart.    s(16) = ( -1.0000000  0.0000000  0.0000000 )
                  (  0.0000000  1.0000000  0.0000000 )
                  (  0.0000000  0.0000000  1.0000000 )


      isym = 17     inv.  60 deg rotation - cryst. axis [0,0,1]  

 cryst.   s(17) = (    -1         -1          0      )    f =(  0.0000000 )
                  (     1          0          0      )       (  0.0000000 )
                  (     0          0         -1      )       (  0.5000000 )

 cart.    s(17) = ( -0.5000000  0.8660254  0.0000000 )    f =(  0.0000000 )
                  ( -0.8660254 -0.5000000  0.0000000 )       (  0.0000000 )
                  (  0.0000000  0.0000000 -1.0000000 )       (  1.2998783 )


      isym = 18     inv.  60 deg rotation - cryst. axis [0,0,-1] 

 cryst.   s(18) = (     0          1          0      )    f =(  0.0000000 )
                  (    -1         -1          0      )       (  0.0000000 )
                  (     0          0         -1      )       (  0.5000000 )

 cart.    s(18) = ( -0.5000000 -0.8660254  0.0000000 )    f =(  0.0000000 )
                  (  0.8660254 -0.5000000  0.0000000 )       (  0.0000000 )
                  (  0.0000000  0.0000000 -1.0000000 )       (  1.2998783 )


      isym = 19     inv. 120 deg rotation - cryst. axis [0,0,1]  

 cryst.   s(19) = (     0         -1          0      )
                  (     1          1          0      )
                  (     0          0         -1      )

 cart.    s(19) = (  0.5000000  0.8660254  0.0000000 )
                  ( -0.8660254  0.5000000  0.0000000 )
                  (  0.0000000  0.0000000 -1.0000000 )


      isym = 20     inv. 120 deg rotation - cryst. axis [0,0,-1] 

 cryst.   s(20) = (     1          1          0      )
                  (    -1          0          0      )
                  (     0          0         -1      )

 cart.    s(20) = (  0.5000000 -0.8660254  0.0000000 )
                  (  0.8660254  0.5000000  0.0000000 )
                  (  0.0000000  0.0000000 -1.0000000 )


      isym = 21     inv. 180 deg rotation - cryst. axis [1,-1,0] 

 cryst.   s(21) = (     0          1          0      )    f =(  0.0000000 )
                  (     1          0          0      )       (  0.0000000 )
                  (     0          0          1      )       (  0.5000000 )

 cart.    s(21) = ( -0.5000000  0.8660254  0.0000000 )    f =(  0.0000000 )
                  (  0.8660254  0.5000000  0.0000000 )       (  0.0000000 )
                  (  0.0000000  0.0000000  1.0000000 )       (  1.2998783 )


      isym = 22     inv. 180 deg rotation - cryst. axis [2,1,0]  

 cryst.   s(22) = (    -1         -1          0      )    f =(  0.0000000 )
                  (     0          1          0      )       (  0.0000000 )
                  (     0          0          1      )       (  0.5000000 )

 cart.    s(22) = ( -0.5000000 -0.8660254  0.0000000 )    f =(  0.0000000 )
                  ( -0.8660254  0.5000000  0.0000000 )       (  0.0000000 )
                  (  0.0000000  0.0000000  1.0000000 )       (  1.2998783 )


      isym = 23     inv. 180 deg rotation - cryst. axis [0,1,0]  

 cryst.   s(23) = (     1          1          0      )
                  (     0         -1          0      )
                  (     0          0          1      )

 cart.    s(23) = (  0.5000000  0.8660254  0.0000000 )
                  (  0.8660254 -0.5000000  0.0000000 )
                  (  0.0000000  0.0000000  1.0000000 )


      isym = 24     inv. 180 deg rotation - cryst. axis [1,1,0]  

 cryst.   s(24) = (     0         -1          0      )
                  (    -1          0          0      )
                  (     0          0          1      )

 cart.    s(24) = (  0.5000000 -0.8660254  0.0000000 )
                  ( -0.8660254 -0.5000000  0.0000000 )
                  (  0.0000000  0.0000000  1.0000000 )


     point group D_6h(6/mmm)
     there are 12 classes
     the character table:

       E     2C6   2C3   C2    3C2'  3C2'' i     2S3   2S6   s_h   3s_d  3s_v 
A_1g   1.00  1.00  1.00  1.00  1.00  1.00  1.00  1.00  1.00  1.00  1.00  1.00
A_2g   1.00  1.00  1.00  1.00 -1.00 -1.00  1.00  1.00  1.00  1.00 -1.00 -1.00
B_1g   1.00 -1.00  1.00 -1.00  1.00 -1.00  1.00 -1.00  1.00 -1.00  1.00 -1.00
B_2g   1.00 -1.00  1.00 -1.00 -1.00  1.00  1.00 -1.00  1.00 -1.00 -1.00  1.00
E_1g   2.00  1.00 -1.00 -2.00  0.00  0.00  2.00  1.00 -1.00 -2.00  0.00  0.00
E_2g   2.00 -1.00 -1.00  2.00  0.00  0.00  2.00 -1.00 -1.00  2.00  0.00  0.00
A_1u   1.00  1.00  1.00  1.00  1.00  1.00 -1.00 -1.00 -1.00 -1.00 -1.00 -1.00
A_2u   1.00  1.00  1.00  1.00 -1.00 -1.00 -1.00 -1.00 -1.00 -1.00  1.00  1.00
B_1u   1.00 -1.00  1.00 -1.00  1.00 -1.00 -1.00  1.00 -1.00  1.00 -1.00  1.00
B_2u   1.00 -1.00  1.00 -1.00 -1.00  1.00 -1.00  1.00 -1.00  1.00  1.00 -1.00
E_1u   2.00  1.00 -1.00 -2.00  0.00  0.00 -2.00 -1.00  1.00  2.00  0.00  0.00
E_2u   2.00 -1.00 -1.00  2.00  0.00  0.00 -2.00  1.00  1.00 -2.00  0.00  0.00

     the symmetry operations in each class and the name of the first element:

     E        1
          identity                                               
     2C6      5    6
           60 deg rotation - cryst. axis [0,0,1]                 
     2C3      7    8
          120 deg rotation - cryst. axis [0,0,1]                 
     C2       2
          180 deg rotation - cart. axis [0,0,1]                  
     3C2'     4   12   11
          180 deg rotation - cart. axis [1,0,0]                  
     3C2''    3    9   10
          180 deg rotation - cart. axis [0,1,0]                  
     i       13
          inversion                                              
     2S3     17   18
          inv.  60 deg rotation - cryst. axis [0,0,1]            
     2S6     19   20
          inv. 120 deg rotation - cryst. axis [0,0,1]            
     s_h     14
          inv. 180 deg rotation - cart. axis [0,0,1]             
     3s_d    16   24   23
          inv. 180 deg rotation - cart. axis [1,0,0]             
     3s_v    15   21   22
          inv. 180 deg rotation - cart. axis [0,1,0]             

   Cartesian axes

     site n.     atom                  positions (alat units)
         1           C   tau(   1) = (  -0.5000000   0.8660254   1.9498175  )
         2           C   tau(   2) = (   0.5000005   0.2886748   1.9498175  )
         3           C   tau(   3) = (  -0.5000000   0.8660254   0.6499392  )
         4           C   tau(   4) = (  -0.0000005   0.5773506   0.6499392  )

   Crystallographic axes

     site n.     atom                  positions (cryst. coord.)
         1           C   tau(   1) = (  0.0000000  1.0000000  0.7500000  )
         2           C   tau(   2) = (  0.6666670  0.3333330  0.7500000  )
         3           C   tau(   3) = (  0.0000000  1.0000000  0.2500000  )
         4           C   tau(   4) = (  0.3333330  0.6666670  0.2500000  )

     number of k points=     6  Marzari-Vanderbilt smearing, width (Ry)=  0.0200
                       cart. coord. in units 2pi/alat
        k(    1) = (   0.1250000   0.2165064   0.0961628), wk =   0.2500000
        k(    2) = (   0.1250000   0.5051815   0.0961628), wk =   0.5000000
        k(    3) = (   0.1250000  -0.3608439   0.0961628), wk =   0.5000000
        k(    4) = (   0.1250000  -0.0721688   0.0961628), wk =   0.2500000
        k(    5) = (   0.3750000   0.6495191   0.0961628), wk =   0.2500000
        k(    6) = (   0.3750000  -0.2165064   0.0961628), wk =   0.2500000

                       cryst. coord.
        k(    1) = (   0.1250000   0.1250000   0.2500000), wk =   0.2500000
        k(    2) = (   0.1250000   0.3750000   0.2500000), wk =   0.5000000
        k(    3) = (   0.1250000  -0.3750000   0.2500000), wk =   0.5000000
        k(    4) = (   0.1250000  -0.1250000   0.2500000), wk =   0.2500000
        k(    5) = (   0.3750000   0.3750000   0.2500000), wk =   0.2500000
        k(    6) = (   0.3750000  -0.3750000   0.2500000), wk =   0.2500000

     Dense  grid:    14339 G-vectors     FFT dimensions: (  24,  24,  60)

     Smooth grid:     5053 G-vectors     FFT dimensions: (  18,  18,  48)

     Dynamical RAM for                 wfc:       0.01 MB

     Dynamical RAM for     wfc (w. buffer):       0.10 MB

     Dynamical RAM for           str. fact:       0.03 MB

     Dynamical RAM for           local pot:       0.00 MB

     Dynamical RAM for          nlocal pot:       0.04 MB

     Dynamical RAM for                qrad:       0.71 MB

     Dynamical RAM for          rho,v,vnew:       0.19 MB

     Dynamical RAM for               rhoin:       0.06 MB

     Dynamical RAM for            rho*nmix:       0.44 MB

     Dynamical RAM for           G-vectors:       0.11 MB

     Dynamical RAM for          h,s,v(r/c):       0.03 MB

     Dynamical RAM for          <psi|beta>:       0.01 MB

     Dynamical RAM for                 psi:       0.03 MB

     Dynamical RAM for                hpsi:       0.03 MB

     Dynamical RAM for                spsi:       0.03 MB

     Dynamical RAM for      wfcinit/wfcrot:       0.04 MB

     Dynamical RAM for           addusdens:       1.29 MB

     Dynamical RAM for          addusforce:       1.47 MB

     Dynamical RAM for         addusstress:       1.37 MB

     Estimated static dynamical RAM per process >       1.90 MB

     Estimated max dynamical RAM per process >       3.37 MB

     Estimated total dynamical RAM >      26.97 MB

     Initial potential from superposition of free atoms

     starting charge   15.99984, renormalised to   16.00000
     Starting wfcs are   16 randomized atomic wfcs

     total cpu time spent up to now is        0.2 secs

     Self-consistent Calculation

     iteration #  1     ecut=    30.00 Ry     beta= 0.30
     Davidson diagonalization with overlap
     ethr =  1.00E-02,  avg # of iterations =  3.0

     total cpu time spent up to now is        0.2 secs

     total energy              =     -45.76516985 Ry
     estimated scf accuracy    <       0.31297617 Ry

     iteration #  2     ecut=    30.00 Ry     beta= 0.30
     Davidson diagonalization with overlap
     ethr =  1.96E-03,  avg # of iterations =  1.0

     total cpu time spent up to now is        0.2 secs

     total energy              =     -45.67532910 Ry
     estimated scf accuracy    <       0.14995914 Ry

     iteration #  3     ecut=    30.00 Ry     beta= 0.30
     Davidson diagonalization with overlap
     ethr =  9.37E-04,  avg # of iterations =  4.5

     total cpu time spent up to now is        0.3 secs

     total energy              =     -45.71021959 Ry
     estimated scf accuracy    <       0.02009994 Ry

     iteration #  4     ecut=    30.00 Ry     beta= 0.30
     Davidson diagonalization with overlap
     ethr =  1.26E-04,  avg # of iterations =  2.8

     total cpu time spent up to now is        0.3 secs

     total energy              =     -45.70809502 Ry
     estimated scf accuracy    <       0.00465687 Ry

     iteration #  5     ecut=    30.00 Ry     beta= 0.30
     Davidson diagonalization with overlap
     ethr =  2.91E-05,  avg # of iterations =  3.5

     total cpu time spent up to now is        0.4 secs

     total energy              =     -45.70922934 Ry
     estimated scf accuracy    <       0.00150024 Ry

     iteration #  6     ecut=    30.00 Ry     beta= 0.30
     Davidson diagonalization with overlap
     ethr =  9.38E-06,  avg # of iterations =  3.0

     total cpu time spent up to now is        0.4 secs

     total energy              =     -45.70920376 Ry
     estimated scf accuracy    <       0.00016504 Ry

     iteration #  7     ecut=    30.00 Ry     beta= 0.30
     Davidson diagonalization with overlap
     ethr =  1.03E-06,  avg # of iterations =  5.3

     total cpu time spent up to now is        0.4 secs

     total energy              =     -45.70925216 Ry
     estimated scf accuracy    <       0.00000074 Ry

     iteration #  8     ecut=    30.00 Ry     beta= 0.30
     Davidson diagonalization with overlap
     ethr =  4.64E-09,  avg # of iterations =  5.8

     total cpu time spent up to now is        0.5 secs

     total energy              =     -45.70925447 Ry
     estimated scf accuracy    <       0.00001337 Ry

     iteration #  9     ecut=    30.00 Ry     beta= 0.30
     Davidson diagonalization with overlap
     ethr =  4.64E-09,  avg # of iterations =  1.0

     total cpu time spent up to now is        0.5 secs

     total energy              =     -45.70924454 Ry
     estimated scf accuracy    <       0.00001253 Ry

     iteration # 10     ecut=    30.00 Ry     beta= 0.30
     Davidson diagonalization with overlap
     ethr =  4.64E-09,  avg # of iterations =  5.0

     total cpu time spent up to now is        0.6 secs

     total energy              =     -45.70924800 Ry
     estimated scf accuracy    <       0.00000076 Ry

     iteration # 11     ecut=    30.00 Ry     beta= 0.30
     Davidson diagonalization with overlap
     ethr =  4.64E-09,  avg # of iterations =  1.0

     total cpu time spent up to now is        0.6 secs

     total energy              =     -45.70924856 Ry
     estimated scf accuracy    <       0.00000123 Ry

     iteration # 12     ecut=    30.00 Ry     beta= 0.30
     Davidson diagonalization with overlap
     ethr =  4.64E-09,  avg # of iterations =  2.0

     total cpu time spent up to now is        0.6 secs

     total energy              =     -45.70924862 Ry
     estimated scf accuracy    <       0.00000012 Ry

     iteration # 13     ecut=    30.00 Ry     beta= 0.30
     Davidson diagonalization with overlap
     ethr =  7.27E-10,  avg # of iterations =  2.0

     total cpu time spent up to now is        0.6 secs

     total energy              =     -45.70924860 Ry
     estimated scf accuracy    <       0.00000005 Ry

     iteration # 14     ecut=    30.00 Ry     beta= 0.30
     Davidson diagonalization with overlap
     ethr =  3.36E-10,  avg # of iterations =  3.0

     total cpu time spent up to now is        0.7 secs

     End of self-consistent calculation

          k = 0.1250 0.2165 0.0962 (   626 PWs)   bands (ev):

   -11.0922 -10.7958   0.0851   1.0665   1.1142   1.7859   2.0772   2.1115
    13.7204  15.1380  15.5167  16.2955

     occupation numbers 
     1.0000   1.0000   1.0000   1.0000   1.0000   1.0000   1.0000   1.0000
     0.0000   0.0000   0.0000   0.0000

          k = 0.1250 0.5052 0.0962 (   635 PWs)   bands (ev):

    -7.5632  -7.3370  -4.7166  -4.5436  -0.2105  -0.1222   4.0829   5.1951
     9.0760   9.8212  16.0042  16.4401

     occupation numbers 
     1.0000   1.0000   1.0000   1.0000   1.0000   1.0000   1.0000   1.0000
     0.0000   0.0000   0.0000   0.0000

          k = 0.1250-0.3608 0.0962 (   638 PWs)   bands (ev):

    -9.6465  -9.3768  -1.7128  -1.5932   0.5537   0.6283   1.8069   3.3663
    12.0447  12.6791  15.3655  16.3540

     occupation numbers 
     1.0000   1.0000   1.0000   1.0000   1.0000   1.0000   1.0000   1.0000
     0.0000   0.0000   0.0000   0.0000

          k = 0.1250-0.0722 0.0962 (   616 PWs)   bands (ev):

   -11.8261 -11.5159  -0.8040   0.9517   2.8198   2.8724   3.4704   3.5092
    12.8766  15.5093  15.6535  17.1686

     occupation numbers 
     1.0000   1.0000   1.0000   1.0000   1.0000   1.0000   1.0000   1.0000
     0.0000   0.0000   0.0000   0.0000

          k = 0.3750 0.6495 0.0962 (   638 PWs)   bands (ev):

    -5.9123  -5.8025  -5.0813  -5.0286  -2.5305  -2.4152   5.7946   6.4142
     8.1539   8.3097  17.6471  17.8324

     occupation numbers 
     1.0000   1.0000   1.0000   1.0000   1.0000   1.0000   1.0006   0.9994
     0.0000   0.0000   0.0000   0.0000

          k = 0.3750-0.2165 0.0962 (   632 PWs)   bands (ev):

    -8.9352  -8.6788  -3.4151  -3.2541   1.1560   1.2153   2.6031   4.0382
    10.5145  11.4353  14.6922  15.0416

     occupation numbers 
     1.0000   1.0000   1.0000   1.0000   1.0000   1.0000   1.0000   1.0000
     0.0000   0.0000   0.0000   0.0000

     the Fermi energy is     6.6644 ev

!    total energy              =     -45.70924861 Ry
     estimated scf accuracy    <          3.2E-10 Ry
     smearing contrib. (-TS)   =       0.00041511 Ry
     internal energy E=F+TS    =     -45.70966372 Ry

     The total energy is F=E-TS. E is the sum of the following terms:
     one-electron contribution =      -7.90155954 Ry
     hartree contribution      =      11.96976497 Ry
     xc contribution           =     -13.90187358 Ry
     ewald contribution        =     -35.87599557 Ry

     convergence has been achieved in  14 iterations

     Forces acting on atoms (cartesian axes, Ry/au):

     atom    1 type  1   force =     0.00000000    0.00000000    0.00000000
     atom    2 type  1   force =     0.00000000    0.00000000    0.00000000
     atom    3 type  1   force =    -0.00000000   -0.00000000    0.00000000
     atom    4 type  1   force =    -0.00000000   -0.00000000    0.00000000
     The non-local contrib.  to forces
     atom    1 type  1   force =     0.00000000    0.00000000    0.00000000
     atom    2 type  1   force =     0.00000000    0.00000000    0.00000000
     atom    3 type  1   force =     0.00000000    0.00000000    0.00000000
     atom    4 type  1   force =     0.00000000    0.00000000    0.00000000
     The ionic contribution  to forces
     atom    1 type  1   force =     0.00000852   -0.00000492   -0.00000000
     atom    2 type  1   force =    -0.00000856    0.00000494    0.00000000
     atom    3 type  1   force =    -0.00000852    0.00000492    0.00000000
     atom    4 type  1   force =     0.00000856   -0.00000494    0.00000000
     The local contribution  to forces
     atom    1 type  1   force =     0.00000000    0.00000000    0.00000000
     atom    2 type  1   force =    -0.00000688    0.00000397    0.00000000
     atom    3 type  1   force =    -0.00000000   -0.00000000    0.00000000
     atom    4 type  1   force =     0.00000688   -0.00000397    0.00000000
     The core correction contribution to forces
     atom    1 type  1   force =     0.00000000    0.00000000    0.00000000
     atom    2 type  1   force =     0.00000000    0.00000000    0.00000000
     atom    3 type  1   force =     0.00000000    0.00000000    0.00000000
     atom    4 type  1   force =     0.00000000    0.00000000    0.00000000
     The Hubbard contrib.    to forces
     atom    1 type  1   force =     0.00000000    0.00000000    0.00000000
     atom    2 type  1   force =     0.00000000    0.00000000    0.00000000
     atom    3 type  1   force =     0.00000000    0.00000000    0.00000000
     atom    4 type  1   force =     0.00000000    0.00000000    0.00000000
     The SCF correction term to forces
     atom    1 type  1   force =    -0.00000000    0.00000000    0.00000000
     atom    2 type  1   force =     0.00000000   -0.00000000    0.00000000
     atom    3 type  1   force =     0.00000000   -0.00000000   -0.00000000
     atom    4 type  1   force =    -0.00000000    0.00000000   -0.00000000

     Total force =     0.000000     Total SCF correction =     0.000000


     Computing stress (Cartesian axis) and pressure

          total   stress  (Ry/bohr**3)                   (kbar)     P=      -95.25
  -0.00096177   0.00000000   0.00000000         -141.48        0.00        0.00
   0.00000000  -0.00096177   0.00000000            0.00     -141.48        0.00
   0.00000000   0.00000000  -0.00001896            0.00        0.00       -2.79

     kinetic stress (kbar)  11393.55     -0.00      0.00
                               -0.00  11393.55     -0.00
                                0.00     -0.00  13139.82

     local   stress (kbar) -21822.20      0.01      0.00
                                0.01 -21822.19      0.00
                                0.00      0.00  19614.74

     nonloc. stress (kbar)   4004.44      0.00      0.00
                                0.00   4004.44      0.00
                                0.00      0.00   3522.18

     hartree stress (kbar)   6676.71     -0.00     -0.00
                               -0.00   6676.71     -0.00
                               -0.00     -0.00  -5625.29

     exc-cor stress (kbar)  -2759.77      0.00      0.00
                                0.00  -2759.77      0.00
                                0.00      0.00  -2759.77

     corecor stress (kbar)      0.00      0.00      0.00
                                0.00      0.00      0.00
                                0.00      0.00      0.00

     ewald   stress (kbar)   2365.81     -0.03     -0.00
                               -0.03   2365.78     -0.00
                               -0.00     -0.00 -27894.47

     hubbard stress (kbar)      0.00      0.00      0.00
                                0.00      0.00      0.00
                                0.00      0.00      0.00

     DFT-D   stress (kbar)      0.00      0.00      0.00
                                0.00      0.00      0.00
                                0.00      0.00      0.00

     XDM     stress (kbar)      0.00      0.00      0.00
                                0.00      0.00      0.00
                                0.00      0.00      0.00

     dft-nl  stress (kbar)      0.00      0.00      0.00
                                0.00      0.00      0.00
                                0.00      0.00      0.00

     TS-vdW  stress (kbar)      0.00      0.00      0.00
                                0.00      0.00      0.00
                                0.00      0.00      0.00



     BFGS Geometry Optimization
     Energy error            =      0.0E+00
     Gradient error          =      2.4E-22
     Cell gradient error     =      9.6E-04


     number of scf cycles    =   1
     number of bfgs steps    =   0

     enthalpy new            =     -45.7092486124 Ry

     new trust radius        =       0.0725871963 bohr
     new conv_thr            =       0.0000000010 Ry

     new unit-cell volume =    216.91695 a.u.^3 (    32.14378 Ang^3 )
     density =      2.48194 g/cm^3

CELL_PARAMETERS (alat=  4.66006462)
   0.975955793   0.000000000   0.000000000
  -0.487977897   0.845202510   0.000000000
   0.000000000   0.000000000   2.598524125

ATOMIC_POSITIONS (crystal)
C            -0.0000000000        1.0000000000        0.7500000000
C             0.6666670000        0.3333330000        0.7500000000
C            -0.0000000000        1.0000000000        0.2500000000
C             0.3333330000        0.6666670000        0.2500000000



     Writing output data file ./tmp/graphite.save/
     NEW-OLD atomic charge density approx. for the potential
     extrapolated charge   15.19396, renormalised to   16.00000

     total cpu time spent up to now is        0.8 secs

     Self-consistent Calculation

     iteration #  1     ecut=    30.00 Ry     beta= 0.30
     Davidson diagonalization with overlap
     c_bands:  1 eigenvalues not converged
     ethr =  1.00E-06,  avg # of iterations = 12.8

     total cpu time spent up to now is        0.9 secs

     total energy              =     -45.68356666 Ry
     estimated scf accuracy    <       0.01895049 Ry

     iteration #  2     ecut=    30.00 Ry     beta= 0.30
     Davidson diagonalization with overlap
     ethr =  1.18E-04,  avg # of iterations =  4.2

     total cpu time spent up to now is        0.9 secs

     total energy              =     -45.70792941 Ry
     estimated scf accuracy    <       0.00094518 Ry

     iteration #  3     ecut=    30.00 Ry     beta= 0.30
     Davidson diagonalization with overlap
     ethr =  5.91E-06,  avg # of iterations =  8.0

     total cpu time spent up to now is        1.0 secs

     total energy              =     -45.70784778 Ry
     estimated scf accuracy    <       0.00066068 Ry

     iteration #  4     ecut=    30.00 Ry     beta= 0.30
     Davidson diagonalization with overlap
     ethr =  4.13E-06,  avg # of iterations =  1.5

     total cpu time spent up to now is        1.0 secs

     total energy              =     -45.70782140 Ry
     estimated scf accuracy    <       0.00011159 Ry

     iteration #  5     ecut=    30.00 Ry     beta= 0.30
     Davidson diagonalization with overlap
     ethr =  6.97E-07,  avg # of iterations =  4.5

     total cpu time spent up to now is        1.1 secs

     total energy              =     -45.70786901 Ry
     estimated scf accuracy    <       0.00008345 Ry

     iteration #  6     ecut=    30.00 Ry     beta= 0.30
     Davidson diagonalization with overlap
     ethr =  5.22E-07,  avg # of iterations =  1.0

     total cpu time spent up to now is        1.1 secs

     total energy              =     -45.70785138 Ry
     estimated scf accuracy    <       0.00003027 Ry

     iteration #  7     ecut=    30.00 Ry     beta= 0.30
     Davidson diagonalization with overlap
     ethr =  1.89E-07,  avg # of iterations =  2.0

     total cpu time spent up to now is        1.2 secs

     total energy              =     -45.70785768 Ry
     estimated scf accuracy    <          7.0E-09 Ry

     iteration #  8     ecut=    30.00 Ry     beta= 0.30
     Davidson diagonalization with overlap
     ethr =  4.38E-11,  avg # of iterations =  7.5

     total cpu time spent up to now is        1.3 secs

     total energy              =     -45.70785787 Ry
     estimated scf accuracy    <       0.00000003 Ry

     iteration #  9     ecut=    30.00 Ry     beta= 0.30
     Davidson diagonalization with overlap
     ethr =  4.38E-11,  avg # of iterations =  1.2

     total cpu time spent up to now is        1.3 secs

     total energy              =     -45.70785788 Ry
     estimated scf accuracy    <       0.00000002 Ry

     iteration # 10     ecut=    30.00 Ry     beta= 0.30
     Davidson diagonalization with overlap
     ethr =  4.38E-11,  avg # of iterations =  1.8

     total cpu time spent up to now is        1.3 secs

     total energy              =     -45.70785785 Ry
     estimated scf accuracy    <       0.00000005 Ry

     iteration # 11     ecut=    30.00 Ry     beta= 0.30
     Davidson diagonalization with overlap
     ethr =  4.38E-11,  avg # of iterations =  3.2

     total cpu time spent up to now is        1.4 secs

     End of self-consistent calculation

          k = 0.1281 0.2218 0.0962 (   626 PWs)   bands (ev):

   -11.0531 -10.7658   0.2503   1.5819   1.6252   1.9200   2.5254   2.5562
    14.0637  16.3055  16.6759  17.3932

     occupation numbers 
     1.0000   1.0000   1.0000   1.0000   1.0000   1.0000   1.0000   1.0000
     0.0000   0.0000   0.0000   0.0000

          k = 0.1281 0.5176 0.0962 (   635 PWs)   bands (ev):

    -7.3558  -7.1365  -4.4625  -4.2946   0.1277   0.2093   4.4953   5.5963
     9.7391  10.5029  17.3424  17.7449

     occupation numbers 
     1.0000   1.0000   1.0000   1.0000   1.0000   1.0000   1.0000   1.0000
     0.0000   0.0000   0.0000   0.0000

          k = 0.1281-0.3697 0.0962 (   638 PWs)   bands (ev):

    -9.5444  -9.2842  -1.3088  -1.1953   0.9244   0.9942   2.0754   3.6099
    12.9569  13.5951  15.8297  17.6289

     occupation numbers 
     1.0000   1.0000   1.0000   1.0000   1.0000   1.0000   1.0000   1.0000
     0.0000   0.0000   0.0000   0.0000

          k = 0.1281-0.0739 0.0962 (   616 PWs)   bands (ev):

   -11.8182 -11.5168  -0.6913   1.0307   3.3799   3.4275   4.0183   4.0530
    13.1679  16.6024  16.7618  17.8666

     occupation numbers 
     1.0000   1.0000   1.0000   1.0000   1.0000   1.0000   1.0000   1.0000
     0.0000   0.0000   0.0000   0.0000

          k = 0.3842 0.6655 0.0962 (   638 PWs)   bands (ev):

    -5.5638  -5.4596  -4.8665  -4.8081  -2.3358  -2.2191   6.3198   6.9246
     8.7851   8.9113  18.3797  18.6142

     occupation numbers 
     1.0000   1.0000   1.0000   1.0000   1.0000   1.0000   1.0008   0.9992
     0.0000   0.0000   0.0000   0.0000

          k = 0.3842-0.2218 0.0962 (   632 PWs)   bands (ev):

    -8.7999  -8.5528  -3.0972  -2.9448   1.5483   1.6014   2.9213   4.3367
    11.2857  12.2192  15.9699  16.2481

     occupation numbers 
     1.0000   1.0000   1.0000   1.0000   1.0000   1.0000   1.0000   1.0000
     0.0000   0.0000   0.0000   0.0000

     the Fermi energy is     7.1747 ev

!    total energy              =     -45.70785786 Ry
     estimated scf accuracy    <          3.2E-11 Ry
     smearing contrib. (-TS)   =       0.00041713 Ry
     internal energy E=F+TS    =     -45.70827498 Ry

     The total energy is F=E-TS. E is the sum of the following terms:
     one-electron contribution =      -8.47015519 Ry
     hartree contribution      =      12.56662983 Ry
     xc contribution           =     -14.11394232 Ry
     ewald contribution        =     -35.69080731 Ry

     convergence has been achieved in  11 iterations

     Forces acting on atoms (cartesian axes, Ry/au):

     atom    1 type  1   force =    -0.00000000    0.00000000    0.00000000
     atom    2 type  1   force =    -0.00000000    0.00000000    0.00000000
     atom    3 type  1   force =     0.00000000    0.00000000    0.00000000
     atom    4 type  1   force =     0.00000000   -0.00000000    0.00000000
     The non-local contrib.  to forces
     atom    1 type  1   force =     0.00000000   -0.00000000    0.00000000
     atom    2 type  1   force =     0.00000000    0.00000000    0.00000000
     atom    3 type  1   force =    -0.00000000    0.00000000    0.00000000
     atom    4 type  1   force =     0.00000000    0.00000000    0.00000000
     The ionic contribution  to forces
     atom    1 type  1   force =     0.00000895   -0.00000516   -0.00000000
     atom    2 type  1   force =    -0.00000898    0.00000518   -0.00000000
     atom    3 type  1   force =    -0.00000895    0.00000516   -0.00000000
     atom    4 type  1   force =     0.00000898   -0.00000518   -0.00000000
     The local contribution  to forces
     atom    1 type  1   force =    -0.00000000    0.00000000    0.00000000
     atom    2 type  1   force =    -0.00000641    0.00000370    0.00000000
     atom    3 type  1   force =    -0.00000000   -0.00000000    0.00000000
     atom    4 type  1   force =     0.00000641   -0.00000370    0.00000000
     The core correction contribution to forces
     atom    1 type  1   force =     0.00000000    0.00000000    0.00000000
     atom    2 type  1   force =     0.00000000    0.00000000    0.00000000
     atom    3 type  1   force =     0.00000000    0.00000000    0.00000000
     atom    4 type  1   force =     0.00000000    0.00000000    0.00000000
     The Hubbard contrib.    to forces
     atom    1 type  1   force =     0.00000000    0.00000000    0.00000000
     atom    2 type  1   force =     0.00000000    0.00000000    0.00000000
     atom    3 type  1   force =     0.00000000    0.00000000    0.00000000
     atom    4 type  1   force =     0.00000000    0.00000000    0.00000000
     The SCF correction term to forces
     atom    1 type  1   force =     0.00000000   -0.00000000   -0.00000000
     atom    2 type  1   force =     0.00000000   -0.00000000   -0.00000000
     atom    3 type  1   force =    -0.00000000    0.00000000    0.00000000
     atom    4 type  1   force =    -0.00000000    0.00000000    0.00000000

     Total force =     0.000000     Total SCF correction =     0.000000


     Computing stress (Cartesian axis) and pressure

          total   stress  (Ry/bohr**3)                   (kbar)     P=      127.31
   0.00130563   0.00000000   0.00000000          192.06        0.00        0.00
   0.00000000   0.00130563  -0.00000000            0.00      192.06       -0.00
   0.00000000  -0.00000000  -0.00001486            0.00       -0.00       -2.19

     kinetic stress (kbar)  12318.43      0.00      0.00
                                0.00  12318.43      0.00
                                0.00      0.00  14014.48

     local   stress (kbar) -24210.15      0.01     -0.00
                                0.01 -24210.14      0.00
                               -0.00      0.00  22337.45

     nonloc. stress (kbar)   4294.06     -0.00     -0.00
                               -0.00   4294.06      0.00
                               -0.00      0.00   3741.01

     hartree stress (kbar)   7465.30      0.00      0.00
                                0.00   7465.30     -0.00
                                0.00     -0.00  -6408.38

     exc-cor stress (kbar)  -2944.58      0.00      0.00
                                0.00  -2944.58      0.00
                                0.00      0.00  -2944.58

     corecor stress (kbar)      0.00      0.00      0.00
                                0.00      0.00      0.00
                                0.00      0.00      0.00

     ewald   stress (kbar)   3269.00     -0.03      0.00
                               -0.03   3268.97      0.00
                                0.00      0.00 -30742.17

     hubbard stress (kbar)      0.00      0.00      0.00
                                0.00      0.00      0.00
                                0.00      0.00      0.00

     DFT-D   stress (kbar)      0.00      0.00      0.00
                                0.00      0.00      0.00
                                0.00      0.00      0.00

     XDM     stress (kbar)      0.00      0.00      0.00
                                0.00      0.00      0.00
                                0.00      0.00      0.00

     dft-nl  stress (kbar)      0.00      0.00      0.00
                                0.00      0.00      0.00
                                0.00      0.00      0.00

     TS-vdW  stress (kbar)      0.00      0.00      0.00
                                0.00      0.00      0.00
                                0.00      0.00      0.00


     Energy error            =      1.4E-03
     Gradient error          =      1.4E-22
     Cell gradient error     =      1.3E-03


     number of scf cycles    =   2
     number of bfgs steps    =   1

     enthalpy old            =     -45.7092486124 Ry
     enthalpy new            =     -45.7078578582 Ry

     CASE: enthalpy_new > enthalpy_old

     new trust radius        =       0.0320552409 bohr
     new conv_thr            =       0.0000000010 Ry

     new unit-cell volume =    222.98408 a.u.^3 (    33.04283 Ang^3 )
     density =      2.41441 g/cm^3

CELL_PARAMETERS (alat=  4.66006462)
   0.989379317   0.000000000   0.000000000
  -0.494689658   0.856827622   0.000000000
   0.000000000   0.000000000   2.599212248

ATOMIC_POSITIONS (crystal)
C             0.0000000000        1.0000000000        0.7500000000
C             0.6666670000        0.3333330000        0.7500000000
C             0.0000000000        1.0000000000        0.2500000000
C             0.3333330000        0.6666670000        0.2500000000



     Writing output data file ./tmp/graphite.save/
     NEW-OLD atomic charge density approx. for the potential
     extrapolated charge   16.43534, renormalised to   16.00000

     total cpu time spent up to now is        1.5 secs

     Self-consistent Calculation

     iteration #  1     ecut=    30.00 Ry     beta= 0.30
     Davidson diagonalization with overlap
     ethr =  1.00E-06,  avg # of iterations =  9.8

     total cpu time spent up to now is        1.6 secs

     total energy              =     -45.70386524 Ry
     estimated scf accuracy    <       0.00602706 Ry

     iteration #  2     ecut=    30.00 Ry     beta= 0.30
     Davidson diagonalization with overlap
     ethr =  3.77E-05,  avg # of iterations =  5.2

     total cpu time spent up to now is        1.6 secs

     total energy              =     -45.71169561 Ry
     estimated scf accuracy    <       0.00036603 Ry

     iteration #  3     ecut=    30.00 Ry     beta= 0.30
     Davidson diagonalization with overlap
     c_bands:  1 eigenvalues not converged
     ethr =  2.29E-06,  avg # of iterations =  7.5

     total cpu time spent up to now is        1.6 secs

     total energy              =     -45.71166598 Ry
     estimated scf accuracy    <       0.00024079 Ry

     iteration #  4     ecut=    30.00 Ry     beta= 0.30
     Davidson diagonalization with overlap
     c_bands:  1 eigenvalues not converged
     ethr =  1.50E-06,  avg # of iterations =  4.2

     total cpu time spent up to now is        1.7 secs

     total energy              =     -45.71161951 Ry
     estimated scf accuracy    <       0.00006973 Ry

     iteration #  5     ecut=    30.00 Ry     beta= 0.30
     Davidson diagonalization with overlap
     ethr =  4.36E-07,  avg # of iterations =  2.3

     total cpu time spent up to now is        1.7 secs

     total energy              =     -45.71164112 Ry
     estimated scf accuracy    <       0.00002369 Ry

     iteration #  6     ecut=    30.00 Ry     beta= 0.30
     Davidson diagonalization with overlap
     ethr =  1.48E-07,  avg # of iterations =  1.0

     total cpu time spent up to now is        1.7 secs

     total energy              =     -45.71163791 Ry
     estimated scf accuracy    <       0.00000616 Ry

     iteration #  7     ecut=    30.00 Ry     beta= 0.30
     Davidson diagonalization with overlap
     ethr =  3.85E-08,  avg # of iterations =  2.0

     total cpu time spent up to now is        1.8 secs

     total energy              =     -45.71163922 Ry
     estimated scf accuracy    <          1.8E-09 Ry

     iteration #  8     ecut=    30.00 Ry     beta= 0.30
     Davidson diagonalization with overlap
     ethr =  1.13E-11,  avg # of iterations =  7.8

     total cpu time spent up to now is        1.8 secs

     total energy              =     -45.71163924 Ry
     estimated scf accuracy    <       0.00000011 Ry

     iteration #  9     ecut=    30.00 Ry     beta= 0.30
     Davidson diagonalization with overlap
     ethr =  1.13E-11,  avg # of iterations =  6.0

     total cpu time spent up to now is        1.9 secs

     total energy              =     -45.71163930 Ry
     estimated scf accuracy    <       0.00000002 Ry

     iteration # 10     ecut=    30.00 Ry     beta= 0.30
     Davidson diagonalization with overlap
     ethr =  1.13E-11,  avg # of iterations =  4.0

     total cpu time spent up to now is        1.9 secs

     total energy              =     -45.71163926 Ry
     estimated scf accuracy    <       0.00000007 Ry

     iteration # 11     ecut=    30.00 Ry     beta= 0.30
     Davidson diagonalization with overlap
     ethr =  1.13E-11,  avg # of iterations =  5.0

     total cpu time spent up to now is        2.0 secs

     End of self-consistent calculation

          k = 0.1263 0.2188 0.0962 (   626 PWs)   bands (ev):

   -11.0758 -10.7834   0.1576   1.2895   1.3352   1.8450   2.2706   2.3034
    13.8700  15.6440  16.0190  16.7760

     occupation numbers 
     1.0000   1.0000   1.0000   1.0000   1.0000   1.0000   1.0000   1.0000
     0.0000   0.0000   0.0000   0.0000

          k = 0.1263 0.5106 0.0962 (   635 PWs)   bands (ev):

    -7.4729  -7.2496  -4.6075  -4.4365  -0.0651   0.0203   4.2623   5.3699
     9.3643  10.1179  16.5859  17.0159

     occupation numbers 
     1.0000   1.0000   1.0000   1.0000   1.0000   1.0000   1.0000   1.0000
     0.0000   0.0000   0.0000   0.0000

          k = 0.1263-0.3647 0.0962 (   638 PWs)   bands (ev):

    -9.6025  -9.3370  -1.5379  -1.4209   0.7133   0.7857   1.9240   3.4729
    12.4407  13.0768  15.5685  16.9097

     occupation numbers 
     1.0000   1.0000   1.0000   1.0000   1.0000   1.0000   1.0000   1.0000
     0.0000   0.0000   0.0000   0.0000

          k = 0.1263-0.0729 0.0962 (   616 PWs)   bands (ev):

   -11.8234 -11.5171  -0.7543   0.9870   3.0619   3.1122   3.7069   3.7438
    13.0036  15.9862  16.1344  17.4605

     occupation numbers 
     1.0000   1.0000   1.0000   1.0000   1.0000   1.0000   1.0000   1.0000
     0.0000   0.0000   0.0000   0.0000

          k = 0.3790 0.6565 0.0962 (   638 PWs)   bands (ev):

    -5.7624  -5.6550  -4.9859  -4.9304  -2.4492  -2.3331   6.0228   6.6360
     8.4282   8.5710  17.9664  18.1776

     occupation numbers 
     1.0000   1.0000   1.0000   1.0000   1.0000   1.0000   1.0007   0.9993
     0.0000   0.0000   0.0000   0.0000

          k = 0.3790-0.2188 0.0962 (   632 PWs)   bands (ev):

    -8.8766  -8.6243  -3.2780  -3.1208   1.3254   1.3819   2.7417   4.1686
    10.8497  11.7765  15.2502  15.5794

     occupation numbers 
     1.0000   1.0000   1.0000   1.0000   1.0000   1.0000   1.0000   1.0000
     0.0000   0.0000   0.0000   0.0000

     the Fermi energy is     6.8862 ev

!    total energy              =     -45.71163927 Ry
     estimated scf accuracy    <          2.4E-10 Ry
     smearing contrib. (-TS)   =       0.00041593 Ry
     internal energy E=F+TS    =     -45.71205519 Ry

     The total energy is F=E-TS. E is the sum of the following terms:
     one-electron contribution =      -8.14182310 Ry
     hartree contribution      =      12.22541849 Ry
     xc contribution           =     -13.99404454 Ry
     ewald contribution        =     -35.80160604 Ry

     convergence has been achieved in  11 iterations

     Forces acting on atoms (cartesian axes, Ry/au):

     atom    1 type  1   force =     0.00000000    0.00000000    0.00000000
     atom    2 type  1   force =     0.00000000    0.00000000    0.00000000
     atom    3 type  1   force =    -0.00000000    0.00000000    0.00000000
     atom    4 type  1   force =     0.00000000    0.00000000    0.00000000
     The non-local contrib.  to forces
     atom    1 type  1   force =     0.00000000   -0.00000000    0.00000000
     atom    2 type  1   force =     0.00000000   -0.00000000    0.00000000
     atom    3 type  1   force =     0.00000000   -0.00000000    0.00000000
     atom    4 type  1   force =    -0.00000000    0.00000000    0.00000000
     The ionic contribution  to forces
     atom    1 type  1   force =     0.00000870   -0.00000503   -0.00000000
     atom    2 type  1   force =    -0.00000874    0.00000505   -0.00000000
     atom    3 type  1   force =    -0.00000870    0.00000503   -0.00000000
     atom    4 type  1   force =     0.00000874   -0.00000505   -0.00000000
     The local contribution  to forces
     atom    1 type  1   force =     0.00000000    0.00000000    0.00000000
     atom    2 type  1   force =    -0.00000667    0.00000385    0.00000000
     atom    3 type  1   force =    -0.00000000   -0.00000000    0.00000000
     atom    4 type  1   force =     0.00000667   -0.00000385    0.00000000
     The core correction contribution to forces
     atom    1 type  1   force =     0.00000000    0.00000000    0.00000000
     atom    2 type  1   force =     0.00000000    0.00000000    0.00000000
     atom    3 type  1   force =     0.00000000    0.00000000    0.00000000
     atom    4 type  1   force =     0.00000000    0.00000000    0.00000000
     The Hubbard contrib.    to forces
     atom    1 type  1   force =     0.00000000    0.00000000    0.00000000
     atom    2 type  1   force =     0.00000000    0.00000000    0.00000000
     atom    3 type  1   force =     0.00000000    0.00000000    0.00000000
     atom    4 type  1   force =     0.00000000    0.00000000    0.00000000
     The SCF correction term to forces
     atom    1 type  1   force =    -0.00000000    0.00000000   -0.00000000
     atom    2 type  1   force =     0.00000000   -0.00000000   -0.00000000
     atom    3 type  1   force =     0.00000000   -0.00000000    0.00000000
     atom    4 type  1   force =    -0.00000000    0.00000000    0.00000000

     Total force =     0.000000     Total SCF correction =     0.000000


     Computing stress (Cartesian axis) and pressure

          total   stress  (Ry/bohr**3)                   (kbar)     P=       -2.90
  -0.00002153  -0.00000000   0.00000000           -3.17       -0.00        0.00
  -0.00000000  -0.00002153   0.00000000           -0.00       -3.17        0.00
   0.00000000  -0.00000000  -0.00001612            0.00       -0.00       -2.37

     kinetic stress (kbar)  11788.64      0.00      0.00
                                0.00  11788.64      0.00
                                0.00      0.00  13515.56

     local   stress (kbar) -22837.93      0.01      0.00
                                0.01 -22837.91      0.00
                                0.00      0.00  20772.76

     nonloc. stress (kbar)   4128.48      0.00     -0.00
                                0.00   4128.48      0.00
                               -0.00      0.00   3615.91

     hartree stress (kbar)   7011.44      0.00     -0.00
                                0.00   7011.44      0.00
                               -0.00      0.00  -5957.63

     exc-cor stress (kbar)  -2839.28      0.00      0.00
                                0.00  -2839.28      0.00
                                0.00      0.00  -2839.28

     corecor stress (kbar)      0.00      0.00      0.00
                                0.00      0.00      0.00
                                0.00      0.00      0.00

     ewald   stress (kbar)   2745.50     -0.03      0.00
                               -0.03   2745.47      0.00
                                0.00      0.00 -29109.69

     hubbard stress (kbar)      0.00      0.00      0.00
                                0.00      0.00      0.00
                                0.00      0.00      0.00

     DFT-D   stress (kbar)      0.00      0.00      0.00
                                0.00      0.00      0.00
                                0.00      0.00      0.00

     XDM     stress (kbar)      0.00      0.00      0.00
                                0.00      0.00      0.00
                                0.00      0.00      0.00

     dft-nl  stress (kbar)      0.00      0.00      0.00
                                0.00      0.00      0.00
                                0.00      0.00      0.00

     TS-vdW  stress (kbar)      0.00      0.00      0.00
                                0.00      0.00      0.00
                                0.00      0.00      0.00


     Energy error            =      2.4E-03
     Gradient error          =      1.6E-22
     Cell gradient error     =      2.2E-05


     number of scf cycles    =   3
     number of bfgs steps    =   1

     enthalpy old            =     -45.7092486124 Ry
     enthalpy new            =     -45.7116392683 Ry

     CASE: enthalpy_new < enthalpy_old

     new trust radius        =       0.0011871058 bohr
     new conv_thr            =            1.0E-11 Ry

     new unit-cell volume =    222.78658 a.u.^3 (    33.01356 Ang^3 )
     density =      2.41655 g/cm^3

CELL_PARAMETERS (alat=  4.66006462)
   0.989137673   0.000000000   0.000000000
  -0.494568836   0.856618353  -0.000000000
   0.000000000   0.000000000   2.598179096

ATOMIC_POSITIONS (crystal)
C             0.0000000000        1.0000000000        0.7500000000
C             0.6666670000        0.3333330000        0.7500000000
C             0.0000000000        1.0000000000        0.2500000000
C             0.3333330000        0.6666670000        0.2500000000



     Writing output data file ./tmp/graphite.save/
     NEW-OLD atomic charge density approx. for the potential
     extrapolated charge   15.98582, renormalised to   16.00000

     total cpu time spent up to now is        2.1 secs

     Self-consistent Calculation

     iteration #  1     ecut=    30.00 Ry     beta= 0.30
     Davidson diagonalization with overlap
     ethr =  1.00E-06,  avg # of iterations =  2.0

     Threshold (ethr) on eigenvalues was too large:
     Diagonalizing with lowered threshold

     Davidson diagonalization with overlap
     ethr =  2.42E-08,  avg # of iterations =  1.8

     total cpu time spent up to now is        2.1 secs

     total energy              =     -45.71163504 Ry
     estimated scf accuracy    <       0.00000410 Ry

     iteration #  2     ecut=    30.00 Ry     beta= 0.30
     Davidson diagonalization with overlap
     ethr =  2.56E-08,  avg # of iterations =  3.8

     total cpu time spent up to now is        2.2 secs

     total energy              =     -45.71164191 Ry
     estimated scf accuracy    <       0.00000064 Ry

     iteration #  3     ecut=    30.00 Ry     beta= 0.30
     Davidson diagonalization with overlap
     ethr =  3.97E-09,  avg # of iterations =  1.0

     total cpu time spent up to now is        2.2 secs

     total energy              =     -45.71164175 Ry
     estimated scf accuracy    <       0.00000037 Ry

     iteration #  4     ecut=    30.00 Ry     beta= 0.30
     Davidson diagonalization with overlap
     ethr =  2.33E-09,  avg # of iterations =  2.0

     total cpu time spent up to now is        2.2 secs

     total energy              =     -45.71164175 Ry
     estimated scf accuracy    <       0.00000005 Ry

     iteration #  5     ecut=    30.00 Ry     beta= 0.30
     Davidson diagonalization with overlap
     ethr =  2.83E-10,  avg # of iterations =  3.0

     total cpu time spent up to now is        2.3 secs

     total energy              =     -45.71164177 Ry
     estimated scf accuracy    <       0.00000003 Ry

     iteration #  6     ecut=    30.00 Ry     beta= 0.30
     Davidson diagonalization with overlap
     ethr =  1.81E-10,  avg # of iterations =  1.0

     total cpu time spent up to now is        2.3 secs

     total energy              =     -45.71164177 Ry
     estimated scf accuracy    <          6.0E-09 Ry

     iteration #  7     ecut=    30.00 Ry     beta= 0.30
     Davidson diagonalization with overlap
     ethr =  3.78E-11,  avg # of iterations =  2.0

     total cpu time spent up to now is        2.3 secs

     total energy              =     -45.71164177 Ry
     estimated scf accuracy    <          2.2E-10 Ry

     iteration #  8     ecut=    30.00 Ry     beta= 0.30
     Davidson diagonalization with overlap
     ethr =  1.37E-12,  avg # of iterations =  3.3

     total cpu time spent up to now is        2.4 secs

     total energy              =     -45.71164177 Ry
     estimated scf accuracy    <          1.4E-11 Ry

     iteration #  9     ecut=    30.00 Ry     beta= 0.30
     Davidson diagonalization with overlap
     ethr =  1.00E-13,  avg # of iterations =  3.3

     total cpu time spent up to now is        2.4 secs

     End of self-consistent calculation

          k = 0.1264 0.2189 0.0962 (   626 PWs)   bands (ev):

   -11.0711 -10.7780   0.1625   1.2994   1.3452   1.8528   2.2798   2.3127
    13.8831  15.6597  16.0356  16.7919

     occupation numbers 
     1.0000   1.0000   1.0000   1.0000   1.0000   1.0000   1.0000   1.0000
     0.0000   0.0000   0.0000   0.0000

          k = 0.1264 0.5107 0.0962 (   635 PWs)   bands (ev):

    -7.4664  -7.2425  -4.6004  -4.4290  -0.0570   0.0286   4.2700   5.3795
     9.3750  10.1302  16.6034  17.0344

     occupation numbers 
     1.0000   1.0000   1.0000   1.0000   1.0000   1.0000   1.0000   1.0000
     0.0000   0.0000   0.0000   0.0000

          k = 0.1264-0.3648 0.0962 (   638 PWs)   bands (ev):

    -9.5971  -9.3310  -1.5292  -1.4120   0.7217   0.7943   1.9300   3.4816
    12.4538  13.0913  15.5821  16.9268

     occupation numbers 
     1.0000   1.0000   1.0000   1.0000   1.0000   1.0000   1.0000   1.0000
     0.0000   0.0000   0.0000   0.0000

          k = 0.1264-0.0730 0.0962 (   616 PWs)   bands (ev):

   -11.8190 -11.5119  -0.7499   0.9943   3.0722   3.1226   3.7171   3.7541
    13.0164  16.0019  16.1504  17.4767

     occupation numbers 
     1.0000   1.0000   1.0000   1.0000   1.0000   1.0000   1.0000   1.0000
     0.0000   0.0000   0.0000   0.0000

          k = 0.3791 0.6567 0.0962 (   638 PWs)   bands (ev):

    -5.7544  -5.6467  -4.9790  -4.9233  -2.4427  -2.3262   6.0318   6.6460
     8.4392   8.5823  17.9786  18.1909

     occupation numbers 
     1.0000   1.0000   1.0000   1.0000   1.0000   1.0000   1.0007   0.9993
     0.0000   0.0000   0.0000   0.0000

          k = 0.3791-0.2189 0.0962 (   632 PWs)   bands (ev):

    -8.8709  -8.6179  -3.2703  -3.1127   1.3340   1.3907   2.7483   4.1777
    10.8612  11.7900  15.2673  15.5970

     occupation numbers 
     1.0000   1.0000   1.0000   1.0000   1.0000   1.0000   1.0000   1.0000
     0.0000   0.0000   0.0000   0.0000

     the Fermi energy is     6.8962 ev

!    total energy              =     -45.71164177 Ry
     estimated scf accuracy    <          1.0E-12 Ry
     smearing contrib. (-TS)   =       0.00041579 Ry
     internal energy E=F+TS    =     -45.71205756 Ry

     The total energy is F=E-TS. E is the sum of the following terms:
     one-electron contribution =      -8.11824929 Ry
     hartree contribution      =      12.21957978 Ry
     xc contribution           =     -13.99627037 Ry
     ewald contribution        =     -35.81711768 Ry

     convergence has been achieved in   9 iterations

     Forces acting on atoms (cartesian axes, Ry/au):

     atom    1 type  1   force =     0.00000000    0.00000000    0.00000000
     atom    2 type  1   force =    -0.00000000   -0.00000000    0.00000000
     atom    3 type  1   force =    -0.00000000    0.00000000    0.00000000
     atom    4 type  1   force =    -0.00000000   -0.00000000    0.00000000
     The non-local contrib.  to forces
     atom    1 type  1   force =    -0.00000000    0.00000000    0.00000000
     atom    2 type  1   force =     0.00000000   -0.00000000    0.00000000
     atom    3 type  1   force =     0.00000000   -0.00000000    0.00000000
     atom    4 type  1   force =     0.00000000    0.00000000    0.00000000
     The ionic contribution  to forces
     atom    1 type  1   force =     0.00000871   -0.00000503   -0.00000000
     atom    2 type  1   force =    -0.00000874    0.00000505   -0.00000000
     atom    3 type  1   force =    -0.00000871    0.00000503    0.00000000
     atom    4 type  1   force =     0.00000874   -0.00000505    0.00000000
     The local contribution  to forces
     atom    1 type  1   force =     0.00000000    0.00000000    0.00000000
     atom    2 type  1   force =    -0.00000666    0.00000385    0.00000000
     atom    3 type  1   force =    -0.00000000   -0.00000000    0.00000000
     atom    4 type  1   force =     0.00000666   -0.00000385    0.00000000
     The core correction contribution to forces
     atom    1 type  1   force =     0.00000000    0.00000000    0.00000000
     atom    2 type  1   force =     0.00000000    0.00000000    0.00000000
     atom    3 type  1   force =     0.00000000    0.00000000    0.00000000
     atom    4 type  1   force =     0.00000000    0.00000000    0.00000000
     The Hubbard contrib.    to forces
     atom    1 type  1   force =     0.00000000    0.00000000    0.00000000
     atom    2 type  1   force =     0.00000000    0.00000000    0.00000000
     atom    3 type  1   force =     0.00000000    0.00000000    0.00000000
     atom    4 type  1   force =     0.00000000    0.00000000    0.00000000
     The SCF correction term to forces
     atom    1 type  1   force =    -0.00000000    0.00000000    0.00000000
     atom    2 type  1   force =     0.00000000   -0.00000000    0.00000000
     atom    3 type  1   force =     0.00000000   -0.00000000   -0.00000000
     atom    4 type  1   force =    -0.00000000    0.00000000   -0.00000000

     Total force =     0.000000     Total SCF correction =     0.000000


     Computing stress (Cartesian axis) and pressure

          total   stress  (Ry/bohr**3)                   (kbar)     P=       -0.63
   0.00000091   0.00000000   0.00000000            0.13        0.00        0.00
   0.00000000   0.00000091  -0.00000000            0.00        0.13       -0.00
  -0.00000000   0.00000000  -0.00001472           -0.00        0.00       -2.17

     kinetic stress (kbar)  11802.49      0.00     -0.00
                                0.00  11802.49      0.00
                               -0.00      0.00  13529.71

     local   stress (kbar) -22851.56      0.01      0.00
                                0.01 -22851.54     -0.00
                                0.00     -0.00  20789.00

     nonloc. stress (kbar)   4133.05      0.00     -0.00
                                0.00   4133.05      0.00
                               -0.00      0.00   3619.58

     hartree stress (kbar)   7014.28     -0.00      0.00
                               -0.00   7014.28      0.00
                                0.00      0.00  -5960.02

     exc-cor stress (kbar)  -2842.26      0.00      0.00
                                0.00  -2842.26      0.00
                                0.00      0.00  -2842.26

     corecor stress (kbar)      0.00      0.00      0.00
                                0.00      0.00      0.00
                                0.00      0.00      0.00

     ewald   stress (kbar)   2744.15     -0.03     -0.00
                               -0.03   2744.12     -0.00
                               -0.00     -0.00 -29138.17

     hubbard stress (kbar)      0.00      0.00      0.00
                                0.00      0.00      0.00
                                0.00      0.00      0.00

     DFT-D   stress (kbar)      0.00      0.00      0.00
                                0.00      0.00      0.00
                                0.00      0.00      0.00

     XDM     stress (kbar)      0.00      0.00      0.00
                                0.00      0.00      0.00
                                0.00      0.00      0.00

     dft-nl  stress (kbar)      0.00      0.00      0.00
                                0.00      0.00      0.00
                                0.00      0.00      0.00

     TS-vdW  stress (kbar)      0.00      0.00      0.00
                                0.00      0.00      0.00
                                0.00      0.00      0.00


     Energy error            =      2.5E-06
     Gradient error          =      1.2E-22
     Cell gradient error     =      1.5E-05


     number of scf cycles    =   4
     number of bfgs steps    =   2

     enthalpy old            =     -45.7116392683 Ry
     enthalpy new            =     -45.7116417727 Ry

     CASE: enthalpy_new < enthalpy_old

     new trust radius        =       0.0021237564 bohr
     new conv_thr            =            1.0E-11 Ry

     new unit-cell volume =    222.58435 a.u.^3 (    32.98360 Ang^3 )
     density =      2.41875 g/cm^3

CELL_PARAMETERS (alat=  4.66006462)
   0.989040515   0.000000000   0.000000000
  -0.494520257   0.856534211  -0.000000000
   0.000000000  -0.000000000   2.596330682

ATOMIC_POSITIONS (crystal)
C            -0.0000000000        1.0000000000        0.7500000000
C             0.6666670000        0.3333330000        0.7500000000
C            -0.0000000000        1.0000000000        0.2500000000
C             0.3333330000        0.6666670000        0.2500000000



     Writing output data file ./tmp/graphite.save/
     NEW-OLD atomic charge density approx. for the potential
     extrapolated charge   15.98546, renormalised to   16.00000

     total cpu time spent up to now is        2.5 secs

     Self-consistent Calculation

     iteration #  1     ecut=    30.00 Ry     beta= 0.30
     Davidson diagonalization with overlap
     ethr =  1.00E-06,  avg # of iterations =  2.0

     Threshold (ethr) on eigenvalues was too large:
     Diagonalizing with lowered threshold

     Davidson diagonalization with overlap
     ethr =  2.53E-08,  avg # of iterations =  1.2

     total cpu time spent up to now is        2.6 secs

     total energy              =     -45.71163623 Ry
     estimated scf accuracy    <       0.00000366 Ry

     iteration #  2     ecut=    30.00 Ry     beta= 0.30
     Davidson diagonalization with overlap
     ethr =  2.29E-08,  avg # of iterations =  4.0

     total cpu time spent up to now is        2.6 secs

     total energy              =     -45.71164389 Ry
     estimated scf accuracy    <       0.00000107 Ry

     iteration #  3     ecut=    30.00 Ry     beta= 0.30
     Davidson diagonalization with overlap
     ethr =  6.66E-09,  avg # of iterations =  1.0

     total cpu time spent up to now is        2.6 secs

     total energy              =     -45.71164346 Ry
     estimated scf accuracy    <       0.00000065 Ry

     iteration #  4     ecut=    30.00 Ry     beta= 0.30
     Davidson diagonalization with overlap
     ethr =  4.07E-09,  avg # of iterations =  2.0

     total cpu time spent up to now is        2.7 secs

     total energy              =     -45.71164364 Ry
     estimated scf accuracy    <       0.00000003 Ry

     iteration #  5     ecut=    30.00 Ry     beta= 0.30
     Davidson diagonalization with overlap
     ethr =  2.07E-10,  avg # of iterations =  2.0

     total cpu time spent up to now is        2.7 secs

     total energy              =     -45.71164362 Ry
     estimated scf accuracy    <       0.00000003 Ry

     iteration #  6     ecut=    30.00 Ry     beta= 0.30
     Davidson diagonalization with overlap
     ethr =  1.87E-10,  avg # of iterations =  2.0

     total cpu time spent up to now is        2.7 secs

     total energy              =     -45.71164363 Ry
     estimated scf accuracy    <          5.4E-10 Ry

     iteration #  7     ecut=    30.00 Ry     beta= 0.30
     Davidson diagonalization with overlap
     ethr =  3.37E-12,  avg # of iterations =  3.5

     total cpu time spent up to now is        2.8 secs

     total energy              =     -45.71164363 Ry
     estimated scf accuracy    <          1.8E-10 Ry

     iteration #  8     ecut=    30.00 Ry     beta= 0.30
     Davidson diagonalization with overlap
     ethr =  1.13E-12,  avg # of iterations =  2.3

     total cpu time spent up to now is        2.8 secs

     total energy              =     -45.71164363 Ry
     estimated scf accuracy    <          1.2E-11 Ry

     iteration #  9     ecut=    30.00 Ry     beta= 0.30
     Davidson diagonalization with overlap
     ethr =  1.00E-13,  avg # of iterations =  2.3

     total cpu time spent up to now is        2.8 secs

     End of self-consistent calculation

          k = 0.1264 0.2189 0.0963 (   626 PWs)   bands (ev):

   -11.0633 -10.7686   0.1691   1.3099   1.3559   1.8649   2.2901   2.3232
    13.9018  15.6716  16.0491  16.8051

     occupation numbers 
     1.0000   1.0000   1.0000   1.0000   1.0000   1.0000   1.0000   1.0000
     0.0000   0.0000   0.0000   0.0000

          k = 0.1264 0.5108 0.0963 (   635 PWs)   bands (ev):

    -7.4576  -7.2326  -4.5914  -4.4190  -0.0474   0.0387   4.2780   5.3913
     9.3851  10.1428  16.6163  17.0491

     occupation numbers 
     1.0000   1.0000   1.0000   1.0000   1.0000   1.0000   1.0000   1.0000
     0.0000   0.0000   0.0000   0.0000

          k = 0.1264-0.3648 0.0963 (   638 PWs)   bands (ev):

    -9.5890  -9.3214  -1.5194  -1.4015   0.7315   0.8046   1.9371   3.4938
    12.4644  13.1044  15.6002  16.9398

     occupation numbers 
     1.0000   1.0000   1.0000   1.0000   1.0000   1.0000   1.0000   1.0000
     0.0000   0.0000   0.0000   0.0000

          k = 0.1264-0.0730 0.0963 (   616 PWs)   bands (ev):

   -11.8113 -11.5027  -0.7435   1.0063   3.0829   3.1336   3.7278   3.7650
    13.0354  16.0146  16.1638  17.4896

     occupation numbers 
     1.0000   1.0000   1.0000   1.0000   1.0000   1.0000   1.0000   1.0000
     0.0000   0.0000   0.0000   0.0000

          k = 0.3792 0.6567 0.0963 (   638 PWs)   bands (ev):

    -5.7449  -5.6367  -4.9697  -4.9137  -2.4337  -2.3165   6.0405   6.6569
     8.4501   8.5942  17.9905  18.2038

     occupation numbers 
     1.0000   1.0000   1.0000   1.0000   1.0000   1.0000   1.0006   0.9994
     0.0000   0.0000   0.0000   0.0000

          k = 0.3792-0.2189 0.0963 (   632 PWs)   bands (ev):

    -8.8625  -8.6082  -3.2610  -3.1025   1.3440   1.4010   2.7557   4.1898
    10.8711  11.8032  15.2801  15.6115

     occupation numbers 
     1.0000   1.0000   1.0000   1.0000   1.0000   1.0000   1.0000   1.0000
     0.0000   0.0000   0.0000   0.0000

     the Fermi energy is     6.9071 ev

!    total energy              =     -45.71164363 Ry
     estimated scf accuracy    <          1.2E-12 Ry
     smearing contrib. (-TS)   =       0.00041551 Ry
     internal energy E=F+TS    =     -45.71205914 Ry

     The total energy is F=E-TS. E is the sum of the following terms:
     one-electron contribution =      -8.06776328 Ry
     hartree contribution      =      12.20072518 Ry
     xc contribution           =     -13.99731956 Ry
     ewald contribution        =     -35.84770148 Ry

     convergence has been achieved in   9 iterations

     Forces acting on atoms (cartesian axes, Ry/au):

     atom    1 type  1   force =     0.00000000    0.00000000    0.00000000
     atom    2 type  1   force =     0.00000000    0.00000000    0.00000000
     atom    3 type  1   force =     0.00000000    0.00000000    0.00000000
     atom    4 type  1   force =     0.00000000    0.00000000    0.00000000
     The non-local contrib.  to forces
     atom    1 type  1   force =     0.00000000   -0.00000000   -0.00000000
     atom    2 type  1   force =     0.00000000   -0.00000000   -0.00000000
     atom    3 type  1   force =     0.00000000    0.00000000   -0.00000000
     atom    4 type  1   force =     0.00000000   -0.00000000   -0.00000000
     The ionic contribution  to forces
     atom    1 type  1   force =     0.00000871   -0.00000503   -0.00000000
     atom    2 type  1   force =    -0.00000874    0.00000505   -0.00000000
     atom    3 type  1   force =    -0.00000871    0.00000503    0.00000000
     atom    4 type  1   force =     0.00000874   -0.00000505    0.00000000
     The local contribution  to forces
     atom    1 type  1   force =     0.00000000    0.00000000   -0.00000000
     atom    2 type  1   force =    -0.00000666    0.00000385   -0.00000000
     atom    3 type  1   force =     0.00000000   -0.00000000   -0.00000000
     atom    4 type  1   force =     0.00000666   -0.00000385   -0.00000000
     The core correction contribution to forces
     atom    1 type  1   force =     0.00000000    0.00000000    0.00000000
     atom    2 type  1   force =     0.00000000    0.00000000    0.00000000
     atom    3 type  1   force =     0.00000000    0.00000000    0.00000000
     atom    4 type  1   force =     0.00000000    0.00000000    0.00000000
     The Hubbard contrib.    to forces
     atom    1 type  1   force =     0.00000000    0.00000000    0.00000000
     atom    2 type  1   force =     0.00000000    0.00000000    0.00000000
     atom    3 type  1   force =     0.00000000    0.00000000    0.00000000
     atom    4 type  1   force =     0.00000000    0.00000000    0.00000000
     The SCF correction term to forces
     atom    1 type  1   force =    -0.00000000    0.00000000    0.00000000
     atom    2 type  1   force =     0.00000000   -0.00000000    0.00000000
     atom    3 type  1   force =     0.00000000   -0.00000000   -0.00000000
     atom    4 type  1   force =    -0.00000000    0.00000000   -0.00000000

     Total force =     0.000000     Total SCF correction =     0.000000


     Computing stress (Cartesian axis) and pressure

          total   stress  (Ry/bohr**3)                   (kbar)     P=        0.41
   0.00001002   0.00000000  -0.00000000            1.47        0.00       -0.00
   0.00000000   0.00001002  -0.00000000            0.00        1.47       -0.00
   0.00000000  -0.00000000  -0.00001170            0.00       -0.00       -1.72

     kinetic stress (kbar)  11814.57     -0.00     -0.00
                               -0.00  11814.57      0.00
                               -0.00      0.00  13543.06

     local   stress (kbar) -22842.78      0.01      0.00
                                0.01 -22842.77     -0.00
                                0.00     -0.00  20780.24

     nonloc. stress (kbar)   4137.27      0.00     -0.00
                               -0.00   4137.27      0.00
                               -0.00      0.00   3623.18

     hartree stress (kbar)   7008.41      0.00      0.00
                                0.00   7008.41      0.00
                                0.00      0.00  -5953.41

     exc-cor stress (kbar)  -2845.07      0.00      0.00
                                0.00  -2845.07      0.00
                                0.00      0.00  -2845.07

     corecor stress (kbar)      0.00      0.00      0.00
                                0.00      0.00      0.00
                                0.00      0.00      0.00

     ewald   stress (kbar)   2729.08     -0.03      0.00
                               -0.03   2729.05     -0.00
                                0.00     -0.00 -29149.73

     hubbard stress (kbar)      0.00      0.00      0.00
                                0.00      0.00      0.00
                                0.00      0.00      0.00

     DFT-D   stress (kbar)      0.00      0.00      0.00
                                0.00      0.00      0.00
                                0.00      0.00      0.00

     XDM     stress (kbar)      0.00      0.00      0.00
                                0.00      0.00      0.00
                                0.00      0.00      0.00

     dft-nl  stress (kbar)      0.00      0.00      0.00
                                0.00      0.00      0.00
                                0.00      0.00      0.00

     TS-vdW  stress (kbar)      0.00      0.00      0.00
[...]

     E        1
          identity                                               
     2C6      5    6
           60 deg rotation - cryst. axis [0,0,1]                 
     2C3      7    8
          120 deg rotation - cryst. axis [0,0,1]                 
     C2       2
          180 deg rotation - cart. axis [0,0,1]                  
     3C2'     4   12   11
          180 deg rotation - cart. axis [1,0,0]                  
     3C2''    3    9   10
          180 deg rotation - cart. axis [0,1,0]                  
     i       13
          inversion                                              
     2S3     17   18
          inv.  60 deg rotation - cryst. axis [0,0,1]            
     2S6     19   20
          inv. 120 deg rotation - cryst. axis [0,0,1]            
     s_h     14
          inv. 180 deg rotation - cart. axis [0,0,1]             
     3s_d    16   24   23
          inv. 180 deg rotation - cart. axis [1,0,0]             
     3s_v    15   21   22
          inv. 180 deg rotation - cart. axis [0,1,0]             

   Cartesian axes

     site n.     atom                  positions (alat units)
         1           C   tau(   1) = (  -0.4945626   0.8566075   1.9418170  )
         2           C   tau(   2) = (   0.4945631   0.2855356   1.9418170  )
         3           C   tau(   3) = (  -0.4945626   0.8566075   0.6472723  )
         4           C   tau(   4) = (  -0.0000005   0.5710720   0.6472723  )

   Crystallographic axes

     site n.     atom                  positions (cryst. coord.)
         1           C   tau(   1) = ( -0.0000000  1.0000000  0.7500000  )
         2           C   tau(   2) = (  0.6666670  0.3333330  0.7500000  )
         3           C   tau(   3) = ( -0.0000000  1.0000000  0.2500000  )
         4           C   tau(   4) = (  0.3333330  0.6666670  0.2500000  )

     number of k points=     6  Marzari-Vanderbilt smearing, width (Ry)=  0.0200
                       cart. coord. in units 2pi/alat
        k(    1) = (   0.1263743   0.2188867   0.0965590), wk =   0.2500000
        k(    2) = (   0.1263743   0.5107356   0.0965590), wk =   0.5000000
        k(    3) = (   0.1263743  -0.3648112   0.0965590), wk =   0.5000000
        k(    4) = (   0.1263743  -0.0729622   0.0965590), wk =   0.2500000
        k(    5) = (   0.3791229   0.6566601   0.0965590), wk =   0.2500000
        k(    6) = (   0.3791229  -0.2188867   0.0965590), wk =   0.2500000

                       cryst. coord.
        k(    1) = (   0.1250000   0.1250000   0.2500000), wk =   0.2500000
        k(    2) = (   0.1250000   0.3750000   0.2500000), wk =   0.5000000
        k(    3) = (   0.1250000  -0.3750000   0.2500000), wk =   0.5000000
        k(    4) = (   0.1250000  -0.1250000   0.2500000), wk =   0.2500000
        k(    5) = (   0.3750000   0.3750000   0.2500000), wk =   0.2500000
        k(    6) = (   0.3750000  -0.3750000   0.2500000), wk =   0.2500000

     Dense  grid:    13943 G-vectors     FFT dimensions: (  24,  24,  60)

     Smooth grid:     4855 G-vectors     FFT dimensions: (  18,  18,  48)

     Dynamical RAM for                 wfc:       0.01 MB

     Dynamical RAM for     wfc (w. buffer):       0.10 MB

     Dynamical RAM for           str. fact:       0.03 MB

     Dynamical RAM for           local pot:       0.01 MB

     Dynamical RAM for          nlocal pot:       0.04 MB

     Dynamical RAM for                qrad:       0.71 MB

     Dynamical RAM for          rho,v,vnew:       0.19 MB

     Dynamical RAM for               rhoin:       0.06 MB

     Dynamical RAM for            rho*nmix:       0.43 MB

     Dynamical RAM for           G-vectors:       0.10 MB

     Dynamical RAM for          h,s,v(r/c):       0.03 MB

     Dynamical RAM for          <psi|beta>:       0.01 MB

     Dynamical RAM for                 psi:       0.03 MB

     Dynamical RAM for                hpsi:       0.03 MB

     Dynamical RAM for                spsi:       0.03 MB

     Dynamical RAM for      wfcinit/wfcrot:       0.04 MB

     Dynamical RAM for           addusdens:       1.25 MB

     Dynamical RAM for          addusforce:       1.43 MB

     Dynamical RAM for         addusstress:       1.33 MB

     Estimated static dynamical RAM per process >       1.90 MB

     Estimated max dynamical RAM per process >       3.33 MB

     Estimated total dynamical RAM >      26.61 MB

     Initial potential from superposition of free atoms

     starting charge   15.99984, renormalised to   16.00000
     Starting wfcs are   16 randomized atomic wfcs

     total cpu time spent up to now is        4.4 secs

     Self-consistent Calculation

     iteration #  1     ecut=    30.00 Ry     beta= 0.30
     Davidson diagonalization with overlap
     c_bands:  3 eigenvalues not converged
     c_bands:  2 eigenvalues not converged
     c_bands:  3 eigenvalues not converged
     c_bands:  2 eigenvalues not converged
     ethr =  1.00E-06,  avg # of iterations = 18.3

     total cpu time spent up to now is        4.5 secs

     total energy              =     -45.76233312 Ry
     estimated scf accuracy    <       0.44037543 Ry

     iteration #  2     ecut=    30.00 Ry     beta= 0.30
     Davidson diagonalization with overlap
     ethr =  2.75E-03,  avg # of iterations =  1.0

     total cpu time spent up to now is        4.6 secs

     total energy              =     -45.67874493 Ry
     estimated scf accuracy    <       0.15294584 Ry

     iteration #  3     ecut=    30.00 Ry     beta= 0.30
     Davidson diagonalization with overlap
     ethr =  9.56E-04,  avg # of iterations =  4.0

     total cpu time spent up to now is        4.6 secs

     total energy              =     -45.71074884 Ry
     estimated scf accuracy    <       0.00352891 Ry

     iteration #  4     ecut=    30.00 Ry     beta= 0.30
     Davidson diagonalization with overlap
     c_bands:  1 eigenvalues not converged
     ethr =  2.21E-05,  avg # of iterations =  6.5

     total cpu time spent up to now is        4.7 secs

     total energy              =     -45.71129306 Ry
     estimated scf accuracy    <       0.00124563 Ry

     iteration #  5     ecut=    30.00 Ry     beta= 0.30
     Davidson diagonalization with overlap
     ethr =  7.79E-06,  avg # of iterations =  4.8

     total cpu time spent up to now is        4.7 secs

     total energy              =     -45.71125411 Ry
     estimated scf accuracy    <       0.00011135 Ry

     iteration #  6     ecut=    30.00 Ry     beta= 0.30
     Davidson diagonalization with overlap
     ethr =  6.96E-07,  avg # of iterations =  5.3

     total cpu time spent up to now is        4.7 secs

     total energy              =     -45.71129344 Ry
     estimated scf accuracy    <       0.00000658 Ry

     iteration #  7     ecut=    30.00 Ry     beta= 0.30
     Davidson diagonalization with overlap
     ethr =  4.11E-08,  avg # of iterations =  3.7

     total cpu time spent up to now is        4.8 secs

     total energy              =     -45.71129541 Ry
     estimated scf accuracy    <       0.00000058 Ry

     iteration #  8     ecut=    30.00 Ry     beta= 0.30
     Davidson diagonalization with overlap
     ethr =  3.63E-09,  avg # of iterations =  3.3

     total cpu time spent up to now is        4.8 secs

     total energy              =     -45.71129492 Ry
     estimated scf accuracy    <       0.00000092 Ry

     iteration #  9     ecut=    30.00 Ry     beta= 0.30
     Davidson diagonalization with overlap
     ethr =  3.63E-09,  avg # of iterations =  3.0

     total cpu time spent up to now is        4.8 secs

     total energy              =     -45.71129510 Ry
     estimated scf accuracy    <       0.00000029 Ry

     iteration # 10     ecut=    30.00 Ry     beta= 0.30
     Davidson diagonalization with overlap
     ethr =  1.79E-09,  avg # of iterations =  2.0

     total cpu time spent up to now is        4.9 secs

     total energy              =     -45.71129513 Ry
     estimated scf accuracy    <          7.6E-09 Ry

     iteration # 11     ecut=    30.00 Ry     beta= 0.30
     Davidson diagonalization with overlap
     ethr =  4.76E-11,  avg # of iterations =  3.2

     total cpu time spent up to now is        4.9 secs

     total energy              =     -45.71129513 Ry
     estimated scf accuracy    <          3.1E-09 Ry

     iteration # 12     ecut=    30.00 Ry     beta= 0.30
     Davidson diagonalization with overlap
     ethr =  1.92E-11,  avg # of iterations =  1.2

     total cpu time spent up to now is        4.9 secs

     total energy              =     -45.71129513 Ry
     estimated scf accuracy    <          1.7E-09 Ry

     iteration # 13     ecut=    30.00 Ry     beta= 0.30
     Davidson diagonalization with overlap
     ethr =  1.05E-11,  avg # of iterations =  2.0

     total cpu time spent up to now is        5.0 secs

     End of self-consistent calculation

          k = 0.1264 0.2189 0.0966 (   613 PWs)   bands (ev):

   -11.0332 -10.7324   0.1922   1.3416   1.3885   1.9101   2.3221   2.3559
    13.9695  15.6962  16.0808  16.8362

     occupation numbers 
     1.0000   1.0000   1.0000   1.0000   1.0000   1.0000   1.0000   1.0000
     0.0000   0.0000   0.0000   0.0000

          k = 0.1264 0.5107 0.0966 (   623 PWs)   bands (ev):

    -7.4273  -7.1974  -4.5605  -4.3845  -0.0157   0.0724   4.3018   5.4304
     9.4122  10.1792  16.6410  17.0821

     occupation numbers 
     1.0000   1.0000   1.0000   1.0000   1.0000   1.0000   1.0000   1.0000
     0.0000   0.0000   0.0000   0.0000

          k = 0.1264-0.3648 0.0966 (   618 PWs)   bands (ev):

    -9.5587  -9.2855  -1.4882  -1.3676   0.7633   0.8383   1.9603   3.5375
    12.4897  13.1389  15.6629  16.9670

     occupation numbers 
     1.0000   1.0000   1.0000   1.0000   1.0000   1.0000   1.0000   1.0000
     0.0000   0.0000   0.0000   0.0000

          k = 0.1264-0.0730 0.0966 (   595 PWs)   bands (ev):

   -11.7813 -11.4663  -0.7207   1.0520   3.1147   3.1676   3.7596   3.7984
    13.1055  16.0442  16.1955  17.5247

     occupation numbers 
     1.0000   1.0000   1.0000   1.0000   1.0000   1.0000   1.0000   1.0000
     0.0000   0.0000   0.0000   0.0000

          k = 0.3791 0.6567 0.0966 (   622 PWs)   bands (ev):

    -5.7141  -5.6034  -4.9370  -4.8799  -2.4017  -2.2820   6.0648   6.6897
     8.4808   8.6300  18.0238  18.2405

     occupation numbers 
     1.0000   1.0000   1.0000   1.0000   1.0000   1.0000   1.0005   0.9995
     0.0000   0.0000   0.0000   0.0000

          k = 0.3791-0.2189 0.0966 (   616 PWs)   bands (ev):

    -8.8323  -8.5726  -3.2300  -3.0681   1.3762   1.4345   2.7787   4.2322
    10.8956  11.8403  15.3061  15.6457

     occupation numbers 
     1.0000   1.0000   1.0000   1.0000   1.0000   1.0000   1.0000   1.0000
     0.0000   0.0000   0.0000   0.0000

     the Fermi energy is     6.9400 ev

!    total energy              =     -45.71129513 Ry
     estimated scf accuracy    <          5.2E-12 Ry
     smearing contrib. (-TS)   =       0.00041448 Ry
     internal energy E=F+TS    =     -45.71170961 Ry

     The total energy is F=E-TS. E is the sum of the following terms:
     one-electron contribution =      -7.85802638 Ry
     hartree contribution      =      12.11508684 Ry
     xc contribution           =     -13.99736550 Ry
     ewald contribution        =     -35.97140458 Ry

     convergence has been achieved in  13 iterations

     Forces acting on atoms (cartesian axes, Ry/au):

     atom    1 type  1   force =     0.00000000    0.00000000    0.00000000
     atom    2 type  1   force =     0.00000000    0.00000000    0.00000000
     atom    3 type  1   force =     0.00000000    0.00000000    0.00000000
     atom    4 type  1   force =     0.00000000    0.00000000    0.00000000
     The non-local contrib.  to forces
     atom    1 type  1   force =     0.00000000    0.00000000    0.00000000
     atom    2 type  1   force =    -0.00000000   -0.00000000   -0.00000000
     atom    3 type  1   force =    -0.00000000    0.00000000    0.00000000
     atom    4 type  1   force =    -0.00000000    0.00000000    0.00000000
     The ionic contribution  to forces
     atom    1 type  1   force =     0.00000871   -0.00000503   -0.00000000
     atom    2 type  1   force =    -0.00000874    0.00000505   -0.00000000
     atom    3 type  1   force =    -0.00000871    0.00000503    0.00000000
     atom    4 type  1   force =     0.00000874   -0.00000505    0.00000000
     The local contribution  to forces
     atom    1 type  1   force =     0.00000000    0.00000000   -0.00000000
     atom    2 type  1   force =    -0.00000666    0.00000384   -0.00000000
     atom    3 type  1   force =     0.00000000   -0.00000000   -0.00000000
     atom    4 type  1   force =     0.00000666   -0.00000384   -0.00000000
     The core correction contribution to forces
     atom    1 type  1   force =     0.00000000    0.00000000    0.00000000
     atom    2 type  1   force =     0.00000000    0.00000000    0.00000000
     atom    3 type  1   force =     0.00000000    0.00000000    0.00000000
     atom    4 type  1   force =     0.00000000    0.00000000    0.00000000
     The Hubbard contrib.    to forces
     atom    1 type  1   force =     0.00000000    0.00000000    0.00000000
     atom    2 type  1   force =     0.00000000    0.00000000    0.00000000
     atom    3 type  1   force =     0.00000000    0.00000000    0.00000000
     atom    4 type  1   force =     0.00000000    0.00000000    0.00000000
     The SCF correction term to forces
     atom    1 type  1   force =    -0.00000000    0.00000000   -0.00000000
     atom    2 type  1   force =    -0.00000000    0.00000000   -0.00000000
     atom    3 type  1   force =     0.00000000   -0.00000000    0.00000000
     atom    4 type  1   force =     0.00000000   -0.00000000    0.00000000

     Total force =     0.000000     Total SCF correction =     0.000000


     Computing stress (Cartesian axis) and pressure

          total   stress  (Ry/bohr**3)                   (kbar)     P=       -1.80
  -0.00001143   0.00000000   0.00000000           -1.68        0.00        0.00
   0.00000000  -0.00001143  -0.00000000            0.00       -1.68       -0.00
   0.00000000  -0.00000000  -0.00001381            0.00       -0.00       -2.03

     kinetic stress (kbar)  11846.91     -0.00     -0.00
                               -0.00  11846.91      0.00
                               -0.00      0.00  13581.12

     local   stress (kbar) -22762.65      0.01     -0.00
                                0.01 -22762.64     -0.00
                               -0.00     -0.00  20692.39

     nonloc. stress (kbar)   4144.32     -0.00     -0.00
                               -0.00   4144.32     -0.00
                               -0.00     -0.00   3629.49

     hartree stress (kbar)   6970.02      0.00     -0.00
                                0.00   6970.02     -0.00
                               -0.00     -0.00  -5912.22

     exc-cor stress (kbar)  -2852.54      0.00      0.00
                                0.00  -2852.54      0.00
                                0.00      0.00  -2852.54

     corecor stress (kbar)      0.00      0.00      0.00
                                0.00      0.00      0.00
                                0.00      0.00      0.00

     ewald   stress (kbar)   2652.27     -0.03      0.00
                               -0.03   2652.24      0.00
                                0.00      0.00 -29140.28

     hubbard stress (kbar)      0.00      0.00      0.00
                                0.00      0.00      0.00
                                0.00      0.00      0.00

     DFT-D   stress (kbar)      0.00      0.00      0.00
                                0.00      0.00      0.00
                                0.00      0.00      0.00

     XDM     stress (kbar)      0.00      0.00      0.00
                                0.00      0.00      0.00
                                0.00      0.00      0.00

     dft-nl  stress (kbar)      0.00      0.00      0.00
                                0.00      0.00      0.00
                                0.00      0.00      0.00

     TS-vdW  stress (kbar)      0.00      0.00      0.00
                                0.00      0.00      0.00
                                0.00      0.00      0.00



     Writing output data file ./tmp/graphite.save/
 
     init_run     :      0.17s CPU      0.19s WALL (       2 calls)
     electrons    :      3.41s CPU      3.94s WALL (       9 calls)
     update_pot   :      0.31s CPU      0.32s WALL (       7 calls)
     forces       :      0.16s CPU      0.18s WALL (       9 calls)
     stress       :      0.28s CPU      0.29s WALL (       9 calls)

     Called by init_run:
     wfcinit      :      0.02s CPU      0.03s WALL (       2 calls)
     wfcinit:atom :      0.00s CPU      0.00s WALL (      12 calls)
     wfcinit:wfcr :      0.02s CPU      0.03s WALL (      12 calls)
     potinit      :      0.03s CPU      0.03s WALL (       2 calls)
     hinit0       :      0.10s CPU      0.11s WALL (       2 calls)

     Called by electrons:
     c_bands      :      2.69s CPU      3.13s WALL (     104 calls)
     sum_band     :      0.52s CPU      0.60s WALL (     104 calls)
     v_of_rho     :      0.04s CPU      0.04s WALL (     108 calls)
     v_h          :      0.01s CPU      0.01s WALL (     108 calls)
     v_xc         :      0.03s CPU      0.03s WALL (     108 calls)
     newd         :      0.10s CPU      0.10s WALL (     108 calls)
     mix_rho      :      0.04s CPU      0.04s WALL (     104 calls)

     Called by c_bands:
     init_us_2    :      0.03s CPU      0.03s WALL (    1368 calls)
     cegterg      :      2.61s CPU      3.04s WALL (     624 calls)

     Called by sum_band:
     sum_band:wei :      0.01s CPU      0.01s WALL (     104 calls)
     sum_band:loo :      0.38s CPU      0.43s WALL (     104 calls)
     sum_band:buf :      0.00s CPU      0.00s WALL (     624 calls)
     sum_band:ini :      0.01s CPU      0.01s WALL (     624 calls)
     sum_band:cal :      0.02s CPU      0.03s WALL (     624 calls)
     sum_band:bec :      0.00s CPU      0.00s WALL (     624 calls)
     addusdens    :      0.08s CPU      0.10s WALL (     104 calls)
     addusd:skk   :      0.00s CPU      0.00s WALL (     104 calls)
     addusd:dgemm :      0.02s CPU      0.02s WALL (     104 calls)
     addusd:qvan2 :      0.04s CPU      0.05s WALL (     104 calls)

     Called by *egterg:
     cdiaghg      :      0.33s CPU      0.39s WALL (    2493 calls)
     cegterg:over :      0.08s CPU      0.09s WALL (    1941 calls)
     cegterg:upda :      0.02s CPU      0.02s WALL (    1941 calls)
     cegterg:last :      0.02s CPU      0.03s WALL (    1442 calls)
     h_psi        :      2.05s CPU      2.39s WALL (    2577 calls)
     s_psi        :      0.02s CPU      0.03s WALL (    2577 calls)
     g_psi        :      0.01s CPU      0.01s WALL (    1941 calls)

     Called by h_psi:
     h_psi:calbec :      0.08s CPU      0.10s WALL (    2577 calls)
     vloc_psi     :      1.93s CPU      2.24s WALL (    2577 calls)
     add_vuspsi   :      0.03s CPU      0.03s WALL (    2577 calls)

     General routines
     calbec       :      0.11s CPU      0.13s WALL (    3471 calls)
     fft          :      0.10s CPU      0.11s WALL (     687 calls)
     ffts         :      0.01s CPU      0.01s WALL (     212 calls)
     fftw         :      2.14s CPU      2.49s WALL (   50682 calls)
     interpolate  :      0.02s CPU      0.02s WALL (     108 calls)
 
     Parallel routines
     fft_scatt_xy :      0.14s CPU      0.16s WALL (   51581 calls)
     fft_scatt_yz :      1.14s CPU      1.33s WALL (   51581 calls)
 
     PWSCF        :      4.42s CPU      5.03s WALL

 
   This run was terminated on:  17:53:12  16Apr2021            

=------------------------------------------------------------------------------=
   JOB DONE.
=------------------------------------------------------------------------------=
