
     Program PWSCF v.6.7MaX starts on 16Apr2021 at 17:45:50 

     This program is part of the open-source Quantum ESPRESSO suite
     for quantum simulation of materials; please cite
         "P. Giannozzi et al., J. Phys.:Condens. Matter 21 395502 (2009);
         "P. Giannozzi et al., J. Phys.:Condens. Matter 29 465901 (2017);
          URL http://www.quantum-espresso.org", 
     in publications or presentations arising from this work. More details at
     http://www.quantum-espresso.org/quote

     Parallel version (MPI), running on     8 processors

     MPI processes distributed on     1 nodes
     R & G space division:  proc/nbgrp/npool/nimage =       8
     Waiting for input...
     Reading input from standard input

     Current dimensions of program PWSCF are:
     Max number of different atomic species (ntypx) = 10
     Max number of k-points (npk) =  40000
     Max angular momentum in pseudopotentials (lmaxx) =  3
     file C.pbe-rrkjus.UPF: wavefunction(s)  2S 2P renormalized

     IMPORTANT: XC functional enforced from input :
     Exchange-correlation= RVV10
                           (   1   4  13   4  26   0   0)
     Any further DFT definition will be discarded
     Please, verify this is what you really want


     Subspace diagonalization in iterative solution of the eigenvalue problem:
     a serial algorithm will be used

 
     Parallelization info
     --------------------
     sticks:   dense  smooth     PW     G-vecs:    dense   smooth      PW
     Min          45      22      7                 1787      630     127
     Max          46      24      8                 1796      634     134
     Sum         361     187     61                14339     5053    1045
 


     bravais-lattice index     =            4
     lattice parameter (alat)  =       4.6601  a.u.
     unit-cell volume          =     227.8448 (a.u.)^3
     number of atoms/cell      =            4
     number of atomic types    =            1
     number of electrons       =        16.00
     number of Kohn-Sham states=           12
     kinetic-energy cutoff     =      30.0000  Ry
     charge density cutoff     =     240.0000  Ry
     scf convergence threshold =      1.0E-09
     mixing beta               =       0.3000
     number of iterations used =            8  plain     mixing
     energy convergence thresh.=      1.0E-05
     force convergence thresh. =      1.0E-04
     press convergence thresh. =      5.0E-01
     Exchange-correlation= RVV10
                           (   1   4  13   4  26   0   0)
     nstep                     =           50


     celldm(1)=   4.660065  celldm(2)=   0.000000  celldm(3)=   2.599757
     celldm(4)=   0.000000  celldm(5)=   0.000000  celldm(6)=   0.000000

     crystal axes: (cart. coord. in units of alat)
               a(1) = (   1.000000   0.000000   0.000000 )  
               a(2) = (  -0.500000   0.866025   0.000000 )  
               a(3) = (   0.000000   0.000000   2.599757 )  

     reciprocal axes: (cart. coord. in units 2 pi/alat)
               b(1) = (  1.000000  0.577350  0.000000 )  
               b(2) = (  0.000000  1.154701  0.000000 )  
               b(3) = (  0.000000  0.000000  0.384651 )  


     PseudoPot. # 1 for C  read from file:
     ../../pseudo/C.pbe-rrkjus.UPF
     MD5 check sum: 00fb224312de0c5b6853bd333518df6f
     Pseudo is Ultrasoft, Zval =  4.0
     Generated by new atomic code, or converted to UPF format
     Using radial grid of  627 points,  4 beta functions with: 
                l(1) =   0
                l(2) =   0
                l(3) =   1
                l(4) =   1
     Q(r) pseudized with 0 coefficients 


     atomic species   valence    mass     pseudopotential
        C              4.00    12.01100     C ( 1.00)

     24 Sym. Ops., with inversion, found (12 have fractional translation)


                                    s                        frac. trans.

      isym =  1     identity                                     

 cryst.   s( 1) = (     1          0          0      )
                  (     0          1          0      )
                  (     0          0          1      )

 cart.    s( 1) = (  1.0000000  0.0000000  0.0000000 )
                  (  0.0000000  1.0000000  0.0000000 )
                  (  0.0000000  0.0000000  1.0000000 )


      isym =  2     180 deg rotation - cart. axis [0,0,1]        

 cryst.   s( 2) = (    -1          0          0      )    f =(  0.0000000 )
                  (     0         -1          0      )       (  0.0000000 )
                  (     0          0          1      )       (  0.5000000 )

 cart.    s( 2) = ( -1.0000000  0.0000000  0.0000000 )    f =(  0.0000000 )
                  (  0.0000000 -1.0000000  0.0000000 )       (  0.0000000 )
                  (  0.0000000  0.0000000  1.0000000 )       (  1.2998783 )


      isym =  3     180 deg rotation - cart. axis [0,1,0]        

 cryst.   s( 3) = (    -1          0          0      )    f =(  0.0000000 )
                  (     1          1          0      )       (  0.0000000 )
                  (     0          0         -1      )       (  0.5000000 )

 cart.    s( 3) = ( -1.0000000  0.0000000  0.0000000 )    f =(  0.0000000 )
                  (  0.0000000  1.0000000  0.0000000 )       (  0.0000000 )
                  (  0.0000000  0.0000000 -1.0000000 )       (  1.2998783 )


      isym =  4     180 deg rotation - cart. axis [1,0,0]        

 cryst.   s( 4) = (     1          0          0      )
                  (    -1         -1          0      )
                  (     0          0         -1      )

 cart.    s( 4) = (  1.0000000  0.0000000  0.0000000 )
                  (  0.0000000 -1.0000000  0.0000000 )
                  (  0.0000000  0.0000000 -1.0000000 )


      isym =  5      60 deg rotation - cryst. axis [0,0,1]       

 cryst.   s( 5) = (     1          1          0      )    f =(  0.0000000 )
                  (    -1          0          0      )       (  0.0000000 )
                  (     0          0          1      )       (  0.5000000 )

 cart.    s( 5) = (  0.5000000 -0.8660254  0.0000000 )    f =(  0.0000000 )
                  (  0.8660254  0.5000000  0.0000000 )       (  0.0000000 )
                  (  0.0000000  0.0000000  1.0000000 )       (  1.2998783 )


      isym =  6      60 deg rotation - cryst. axis [0,0,-1]      

 cryst.   s( 6) = (     0         -1          0      )    f =(  0.0000000 )
                  (     1          1          0      )       (  0.0000000 )
                  (     0          0          1      )       (  0.5000000 )

 cart.    s( 6) = (  0.5000000  0.8660254  0.0000000 )    f =(  0.0000000 )
                  ( -0.8660254  0.5000000  0.0000000 )       (  0.0000000 )
                  (  0.0000000  0.0000000  1.0000000 )       (  1.2998783 )


      isym =  7     120 deg rotation - cryst. axis [0,0,1]       

 cryst.   s( 7) = (     0          1          0      )
                  (    -1         -1          0      )
                  (     0          0          1      )

 cart.    s( 7) = ( -0.5000000 -0.8660254  0.0000000 )
                  (  0.8660254 -0.5000000  0.0000000 )
                  (  0.0000000  0.0000000  1.0000000 )


      isym =  8     120 deg rotation - cryst. axis [0,0,-1]      

 cryst.   s( 8) = (    -1         -1          0      )
                  (     1          0          0      )
                  (     0          0          1      )

 cart.    s( 8) = ( -0.5000000  0.8660254  0.0000000 )
                  ( -0.8660254 -0.5000000  0.0000000 )
                  (  0.0000000  0.0000000  1.0000000 )


      isym =  9     180 deg rotation - cryst. axis [1,-1,0]      

 cryst.   s( 9) = (     0         -1          0      )    f =(  0.0000000 )
                  (    -1          0          0      )       (  0.0000000 )
                  (     0          0         -1      )       (  0.5000000 )

 cart.    s( 9) = (  0.5000000 -0.8660254  0.0000000 )    f =(  0.0000000 )
                  ( -0.8660254 -0.5000000  0.0000000 )       (  0.0000000 )
                  (  0.0000000  0.0000000 -1.0000000 )       (  1.2998783 )


      isym = 10     180 deg rotation - cryst. axis [2,1,0]       

 cryst.   s(10) = (     1          1          0      )    f =(  0.0000000 )
                  (     0         -1          0      )       (  0.0000000 )
                  (     0          0         -1      )       (  0.5000000 )

 cart.    s(10) = (  0.5000000  0.8660254  0.0000000 )    f =(  0.0000000 )
                  (  0.8660254 -0.5000000  0.0000000 )       (  0.0000000 )
                  (  0.0000000  0.0000000 -1.0000000 )       (  1.2998783 )


      isym = 11     180 deg rotation - cryst. axis [0,1,0]       

 cryst.   s(11) = (    -1         -1          0      )
                  (     0          1          0      )
                  (     0          0         -1      )

 cart.    s(11) = ( -0.5000000 -0.8660254  0.0000000 )
                  ( -0.8660254  0.5000000  0.0000000 )
                  (  0.0000000  0.0000000 -1.0000000 )


      isym = 12     180 deg rotation - cryst. axis [1,1,0]       

 cryst.   s(12) = (     0          1          0      )
                  (     1          0          0      )
                  (     0          0         -1      )

 cart.    s(12) = ( -0.5000000  0.8660254  0.0000000 )
                  (  0.8660254  0.5000000  0.0000000 )
                  (  0.0000000  0.0000000 -1.0000000 )


      isym = 13     inversion                                    

 cryst.   s(13) = (    -1          0          0      )
                  (     0         -1          0      )
                  (     0          0         -1      )

 cart.    s(13) = ( -1.0000000  0.0000000  0.0000000 )
                  (  0.0000000 -1.0000000  0.0000000 )
                  (  0.0000000  0.0000000 -1.0000000 )


      isym = 14     inv. 180 deg rotation - cart. axis [0,0,1]   

 cryst.   s(14) = (     1          0          0      )    f =(  0.0000000 )
                  (     0          1          0      )       (  0.0000000 )
                  (     0          0         -1      )       (  0.5000000 )

 cart.    s(14) = (  1.0000000  0.0000000  0.0000000 )    f =(  0.0000000 )
                  (  0.0000000  1.0000000  0.0000000 )       (  0.0000000 )
                  (  0.0000000  0.0000000 -1.0000000 )       (  1.2998783 )


      isym = 15     inv. 180 deg rotation - cart. axis [0,1,0]   

 cryst.   s(15) = (     1          0          0      )    f =(  0.0000000 )
                  (    -1         -1          0      )       (  0.0000000 )
                  (     0          0          1      )       (  0.5000000 )

 cart.    s(15) = (  1.0000000  0.0000000  0.0000000 )    f =(  0.0000000 )
                  (  0.0000000 -1.0000000  0.0000000 )       (  0.0000000 )
                  (  0.0000000  0.0000000  1.0000000 )       (  1.2998783 )


      isym = 16     inv. 180 deg rotation - cart. axis [1,0,0]   

 cryst.   s(16) = (    -1          0          0      )
                  (     1          1          0      )
                  (     0          0          1      )

 cart.    s(16) = ( -1.0000000  0.0000000  0.0000000 )
                  (  0.0000000  1.0000000  0.0000000 )
                  (  0.0000000  0.0000000  1.0000000 )


      isym = 17     inv.  60 deg rotation - cryst. axis [0,0,1]  

 cryst.   s(17) = (    -1         -1          0      )    f =(  0.0000000 )
                  (     1          0          0      )       (  0.0000000 )
                  (     0          0         -1      )       (  0.5000000 )

 cart.    s(17) = ( -0.5000000  0.8660254  0.0000000 )    f =(  0.0000000 )
                  ( -0.8660254 -0.5000000  0.0000000 )       (  0.0000000 )
                  (  0.0000000  0.0000000 -1.0000000 )       (  1.2998783 )


      isym = 18     inv.  60 deg rotation - cryst. axis [0,0,-1] 

 cryst.   s(18) = (     0          1          0      )    f =(  0.0000000 )
                  (    -1         -1          0      )       (  0.0000000 )
                  (     0          0         -1      )       (  0.5000000 )

 cart.    s(18) = ( -0.5000000 -0.8660254  0.0000000 )    f =(  0.0000000 )
                  (  0.8660254 -0.5000000  0.0000000 )       (  0.0000000 )
                  (  0.0000000  0.0000000 -1.0000000 )       (  1.2998783 )


      isym = 19     inv. 120 deg rotation - cryst. axis [0,0,1]  

 cryst.   s(19) = (     0         -1          0      )
                  (     1          1          0      )
                  (     0          0         -1      )

 cart.    s(19) = (  0.5000000  0.8660254  0.0000000 )
                  ( -0.8660254  0.5000000  0.0000000 )
                  (  0.0000000  0.0000000 -1.0000000 )


      isym = 20     inv. 120 deg rotation - cryst. axis [0,0,-1] 

 cryst.   s(20) = (     1          1          0      )
                  (    -1          0          0      )
                  (     0          0         -1      )

 cart.    s(20) = (  0.5000000 -0.8660254  0.0000000 )
                  (  0.8660254  0.5000000  0.0000000 )
                  (  0.0000000  0.0000000 -1.0000000 )


      isym = 21     inv. 180 deg rotation - cryst. axis [1,-1,0] 

 cryst.   s(21) = (     0          1          0      )    f =(  0.0000000 )
                  (     1          0          0      )       (  0.0000000 )
                  (     0          0          1      )       (  0.5000000 )

 cart.    s(21) = ( -0.5000000  0.8660254  0.0000000 )    f =(  0.0000000 )
                  (  0.8660254  0.5000000  0.0000000 )       (  0.0000000 )
                  (  0.0000000  0.0000000  1.0000000 )       (  1.2998783 )


      isym = 22     inv. 180 deg rotation - cryst. axis [2,1,0]  

 cryst.   s(22) = (    -1         -1          0      )    f =(  0.0000000 )
                  (     0          1          0      )       (  0.0000000 )
                  (     0          0          1      )       (  0.5000000 )

 cart.    s(22) = ( -0.5000000 -0.8660254  0.0000000 )    f =(  0.0000000 )
                  ( -0.8660254  0.5000000  0.0000000 )       (  0.0000000 )
                  (  0.0000000  0.0000000  1.0000000 )       (  1.2998783 )


      isym = 23     inv. 180 deg rotation - cryst. axis [0,1,0]  

 cryst.   s(23) = (     1          1          0      )
                  (     0         -1          0      )
                  (     0          0          1      )

 cart.    s(23) = (  0.5000000  0.8660254  0.0000000 )
                  (  0.8660254 -0.5000000  0.0000000 )
                  (  0.0000000  0.0000000  1.0000000 )


      isym = 24     inv. 180 deg rotation - cryst. axis [1,1,0]  

 cryst.   s(24) = (     0         -1          0      )
                  (    -1          0          0      )
                  (     0          0          1      )

 cart.    s(24) = (  0.5000000 -0.8660254  0.0000000 )
                  ( -0.8660254 -0.5000000  0.0000000 )
                  (  0.0000000  0.0000000  1.0000000 )


     point group D_6h(6/mmm)
     there are 12 classes
     the character table:

       E     2C6   2C3   C2    3C2'  3C2'' i     2S3   2S6   s_h   3s_d  3s_v 
A_1g   1.00  1.00  1.00  1.00  1.00  1.00  1.00  1.00  1.00  1.00  1.00  1.00
A_2g   1.00  1.00  1.00  1.00 -1.00 -1.00  1.00  1.00  1.00  1.00 -1.00 -1.00
B_1g   1.00 -1.00  1.00 -1.00  1.00 -1.00  1.00 -1.00  1.00 -1.00  1.00 -1.00
B_2g   1.00 -1.00  1.00 -1.00 -1.00  1.00  1.00 -1.00  1.00 -1.00 -1.00  1.00
E_1g   2.00  1.00 -1.00 -2.00  0.00  0.00  2.00  1.00 -1.00 -2.00  0.00  0.00
E_2g   2.00 -1.00 -1.00  2.00  0.00  0.00  2.00 -1.00 -1.00  2.00  0.00  0.00
A_1u   1.00  1.00  1.00  1.00  1.00  1.00 -1.00 -1.00 -1.00 -1.00 -1.00 -1.00
A_2u   1.00  1.00  1.00  1.00 -1.00 -1.00 -1.00 -1.00 -1.00 -1.00  1.00  1.00
B_1u   1.00 -1.00  1.00 -1.00  1.00 -1.00 -1.00  1.00 -1.00  1.00 -1.00  1.00
B_2u   1.00 -1.00  1.00 -1.00 -1.00  1.00 -1.00  1.00 -1.00  1.00  1.00 -1.00
E_1u   2.00  1.00 -1.00 -2.00  0.00  0.00 -2.00 -1.00  1.00  2.00  0.00  0.00
E_2u   2.00 -1.00 -1.00  2.00  0.00  0.00 -2.00  1.00  1.00 -2.00  0.00  0.00

     the symmetry operations in each class and the name of the first element:

     E        1
          identity                                               
     2C6      5    6
           60 deg rotation - cryst. axis [0,0,1]                 
     2C3      7    8
          120 deg rotation - cryst. axis [0,0,1]                 
     C2       2
          180 deg rotation - cart. axis [0,0,1]                  
     3C2'     4   12   11
          180 deg rotation - cart. axis [1,0,0]                  
     3C2''    3    9   10
          180 deg rotation - cart. axis [0,1,0]                  
     i       13
          inversion                                              
     2S3     17   18
          inv.  60 deg rotation - cryst. axis [0,0,1]            
     2S6     19   20
          inv. 120 deg rotation - cryst. axis [0,0,1]            
     s_h     14
          inv. 180 deg rotation - cart. axis [0,0,1]             
     3s_d    16   24   23
          inv. 180 deg rotation - cart. axis [1,0,0]             
     3s_v    15   21   22
          inv. 180 deg rotation - cart. axis [0,1,0]             

   Cartesian axes

     site n.     atom                  positions (alat units)
         1           C   tau(   1) = (  -0.5000000   0.8660254   1.9498175  )
         2           C   tau(   2) = (   0.5000005   0.2886748   1.9498175  )
         3           C   tau(   3) = (  -0.5000000   0.8660254   0.6499392  )
         4           C   tau(   4) = (  -0.0000005   0.5773506   0.6499392  )

   Crystallographic axes

     site n.     atom                  positions (cryst. coord.)
         1           C   tau(   1) = (  0.0000000  1.0000000  0.7500000  )
         2           C   tau(   2) = (  0.6666670  0.3333330  0.7500000  )
         3           C   tau(   3) = (  0.0000000  1.0000000  0.2500000  )
         4           C   tau(   4) = (  0.3333330  0.6666670  0.2500000  )

     number of k points=     6  Marzari-Vanderbilt smearing, width (Ry)=  0.0200
                       cart. coord. in units 2pi/alat
        k(    1) = (   0.1250000   0.2165064   0.0961628), wk =   0.2500000
        k(    2) = (   0.1250000   0.5051815   0.0961628), wk =   0.5000000
        k(    3) = (   0.1250000  -0.3608439   0.0961628), wk =   0.5000000
        k(    4) = (   0.1250000  -0.0721688   0.0961628), wk =   0.2500000
        k(    5) = (   0.3750000   0.6495191   0.0961628), wk =   0.2500000
        k(    6) = (   0.3750000  -0.2165064   0.0961628), wk =   0.2500000

                       cryst. coord.
        k(    1) = (   0.1250000   0.1250000   0.2500000), wk =   0.2500000
        k(    2) = (   0.1250000   0.3750000   0.2500000), wk =   0.5000000
        k(    3) = (   0.1250000  -0.3750000   0.2500000), wk =   0.5000000
        k(    4) = (   0.1250000  -0.1250000   0.2500000), wk =   0.2500000
        k(    5) = (   0.3750000   0.3750000   0.2500000), wk =   0.2500000
        k(    6) = (   0.3750000  -0.3750000   0.2500000), wk =   0.2500000

     Dense  grid:    14339 G-vectors     FFT dimensions: (  24,  24,  60)

     Smooth grid:     5053 G-vectors     FFT dimensions: (  18,  18,  48)

     Dynamical RAM for                 wfc:       0.01 MB

     Dynamical RAM for     wfc (w. buffer):       0.10 MB

     Dynamical RAM for           str. fact:       0.03 MB

     Dynamical RAM for           local pot:       0.00 MB

     Dynamical RAM for          nlocal pot:       0.04 MB

     Dynamical RAM for                qrad:       0.71 MB

     Dynamical RAM for          rho,v,vnew:       0.19 MB

     Dynamical RAM for               rhoin:       0.06 MB

     Dynamical RAM for            rho*nmix:       0.44 MB

     Dynamical RAM for           G-vectors:       0.11 MB

     Dynamical RAM for          h,s,v(r/c):       0.03 MB

     Dynamical RAM for          <psi|beta>:       0.01 MB

     Dynamical RAM for                 psi:       0.03 MB

     Dynamical RAM for                hpsi:       0.03 MB

     Dynamical RAM for                spsi:       0.03 MB

     Dynamical RAM for      wfcinit/wfcrot:       0.04 MB

     Dynamical RAM for           addusdens:       1.29 MB

     Dynamical RAM for          addusforce:       1.47 MB

     Dynamical RAM for         addusstress:       1.37 MB

     Estimated static dynamical RAM per process >       1.90 MB

     Estimated max dynamical RAM per process >       3.37 MB

     Estimated total dynamical RAM >      26.97 MB

     Initial potential from superposition of free atoms

     starting charge   15.99979, renormalised to   16.00000


---------------------------------------------------------------------------------
Carrying out rVV10 run using the following parameters:
Nqs =      20    Nr_points =    1024   r_max =   100.000
b_value =  6.30000    beta =  0.00901
     q_mesh =  0.00010000  0.00030000  0.00058939  0.00100810
               0.00161396  0.00249058  0.00375900  0.00559430
               0.00824984  0.01209221  0.01765183  0.02569619
               0.03733578  0.05417739  0.07854596  0.11380545
               0.16482331  0.23864234  0.34545298  0.50000000

Gradients computed in Reciprocal space

---------------------------------------------------------------------------------




     ----------------------------------------------------------------

     Non-local correlation energy =              0.040379629331473

     ----------------------------------------------------------------

     Starting wfcs are   16 randomized atomic wfcs

     total cpu time spent up to now is        1.3 secs

     Self-consistent Calculation

     iteration #  1     ecut=    30.00 Ry     beta= 0.30
     Davidson diagonalization with overlap
     ethr =  1.00E-02,  avg # of iterations =  2.7


     ----------------------------------------------------------------

     Non-local correlation energy =              0.045813030502321

     ----------------------------------------------------------------


     total cpu time spent up to now is        1.3 secs

     total energy              =     -45.69297315 Ry
     estimated scf accuracy    <       0.38429073 Ry

     iteration #  2     ecut=    30.00 Ry     beta= 0.30
     Davidson diagonalization with overlap
     ethr =  2.40E-03,  avg # of iterations =  1.0


     ----------------------------------------------------------------

     Non-local correlation energy =              0.055303682862712

     ----------------------------------------------------------------


     total cpu time spent up to now is        1.4 secs

     total energy              =     -45.62131914 Ry
     estimated scf accuracy    <       0.13955614 Ry

     iteration #  3     ecut=    30.00 Ry     beta= 0.30
     Davidson diagonalization with overlap
     ethr =  8.72E-04,  avg # of iterations =  4.0


     ----------------------------------------------------------------

     Non-local correlation energy =              0.052121867449128

     ----------------------------------------------------------------


     total cpu time spent up to now is        1.4 secs

     total energy              =     -45.64541060 Ry
     estimated scf accuracy    <       0.00329166 Ry

     iteration #  4     ecut=    30.00 Ry     beta= 0.30
     Davidson diagonalization with overlap
     ethr =  2.06E-05,  avg # of iterations =  4.3


     ----------------------------------------------------------------

     Non-local correlation energy =              0.054223612470346

     ----------------------------------------------------------------


     total cpu time spent up to now is        1.5 secs

     total energy              =     -45.64400241 Ry
     estimated scf accuracy    <       0.00577674 Ry

     iteration #  5     ecut=    30.00 Ry     beta= 0.30
     Davidson diagonalization with overlap
     ethr =  2.06E-05,  avg # of iterations =  2.0


     ----------------------------------------------------------------

     Non-local correlation energy =              0.054200805434231

     ----------------------------------------------------------------


     total cpu time spent up to now is        1.5 secs

     total energy              =     -45.64492649 Ry
     estimated scf accuracy    <       0.00000294 Ry

     iteration #  6     ecut=    30.00 Ry     beta= 0.30
     Davidson diagonalization with overlap
     ethr =  1.84E-08,  avg # of iterations =  4.2


     ----------------------------------------------------------------

     Non-local correlation energy =              0.054237434083887

     ----------------------------------------------------------------


     total cpu time spent up to now is        1.6 secs

     total energy              =     -45.64492925 Ry
     estimated scf accuracy    <       0.00000069 Ry

     iteration #  7     ecut=    30.00 Ry     beta= 0.30
     Davidson diagonalization with overlap
     ethr =  4.32E-09,  avg # of iterations =  2.0


     ----------------------------------------------------------------

     Non-local correlation energy =              0.054236268126453

     ----------------------------------------------------------------


     total cpu time spent up to now is        1.6 secs

     total energy              =     -45.64492949 Ry
     estimated scf accuracy    <       0.00000025 Ry

     iteration #  8     ecut=    30.00 Ry     beta= 0.30
     Davidson diagonalization with overlap
     ethr =  1.55E-09,  avg # of iterations =  1.0


     ----------------------------------------------------------------

     Non-local correlation energy =              0.054225656988114

     ----------------------------------------------------------------


     total cpu time spent up to now is        1.7 secs

     total energy              =     -45.64492945 Ry
     estimated scf accuracy    <       0.00000021 Ry

     iteration #  9     ecut=    30.00 Ry     beta= 0.30
     Davidson diagonalization with overlap
     ethr =  1.34E-09,  avg # of iterations =  2.2


     ----------------------------------------------------------------

     Non-local correlation energy =              0.054225265094584

     ----------------------------------------------------------------


     total cpu time spent up to now is        1.7 secs

     total energy              =     -45.64492952 Ry
     estimated scf accuracy    <          4.0E-09 Ry

     iteration # 10     ecut=    30.00 Ry     beta= 0.30
     Davidson diagonalization with overlap
     ethr =  2.53E-11,  avg # of iterations =  2.0


     ----------------------------------------------------------------

     Non-local correlation energy =              0.054224397676873

     ----------------------------------------------------------------


     total cpu time spent up to now is        1.8 secs

     total energy              =     -45.64492954 Ry
     estimated scf accuracy    <          1.1E-09 Ry

     iteration # 11     ecut=    30.00 Ry     beta= 0.30
     Davidson diagonalization with overlap
     ethr =  7.14E-12,  avg # of iterations =  2.0


     ----------------------------------------------------------------

     Non-local correlation energy =              0.054224283963571

     ----------------------------------------------------------------


     total cpu time spent up to now is        1.8 secs

     End of self-consistent calculation

          k = 0.1250 0.2165 0.0962 (   626 PWs)   bands (ev):

   -10.9823 -10.6958   0.4064   1.2462   1.2935   2.0951   2.3368   2.3703
    14.0356  15.4544  15.8332  16.7035

     occupation numbers 
     1.0000   1.0000   1.0000   1.0000   1.0000   1.0000   1.0000   1.0000
     0.0000   0.0000   0.0000   0.0000

          k = 0.1250 0.5052 0.0962 (   635 PWs)   bands (ev):

    -7.4606  -7.2440  -4.5422  -4.3775   0.0492   0.1353   4.3870   5.4879
     9.3955  10.1281  16.3024  16.7294

     occupation numbers 
     1.0000   1.0000   1.0000   1.0000   1.0000   1.0000   1.0000   1.0000
     0.0000   0.0000   0.0000   0.0000

          k = 0.1250-0.3608 0.0962 (   638 PWs)   bands (ev):

    -9.5342  -9.2735  -1.5483  -1.4327   0.8179   0.8899   2.1225   3.6696
    12.3545  12.9833  15.6956  16.6851

     occupation numbers 
     1.0000   1.0000   1.0000   1.0000   1.0000   1.0000   1.0000   1.0000
     0.0000   0.0000   0.0000   0.0000

          k = 0.1250-0.0722 0.0962 (   616 PWs)   bands (ev):

   -11.7181 -11.4185  -0.4806   1.2636   3.0313   3.0831   3.7099   3.7483
    13.1841  15.8858  16.0238  17.4966

     occupation numbers 
     1.0000   1.0000   1.0000   1.0000   1.0000   1.0000   1.0000   1.0000
     0.0000   0.0000   0.0000   0.0000

          k = 0.3750 0.6495 0.0962 (   638 PWs)   bands (ev):

    -5.8524  -5.7457  -4.9150  -4.8708  -2.2302  -2.1251   6.0922   6.7068
     8.4499   8.6120  18.0742  18.2504

     occupation numbers 
     1.0000   1.0000   1.0000   1.0000   1.0000   1.0000   1.0007   0.9993
     0.0000   0.0000   0.0000   0.0000

          k = 0.3750-0.2165 0.0962 (   632 PWs)   bands (ev):

    -8.8240  -8.5765  -3.2419  -3.0859   1.4152   1.4741   2.9145   4.3374
    10.8351  11.7454  14.9785  15.3263

     occupation numbers 
     1.0000   1.0000   1.0000   1.0000   1.0000   1.0000   1.0000   1.0000
     0.0000   0.0000   0.0000   0.0000

     the Fermi energy is     6.9570 ev

!    total energy              =     -45.64492956 Ry
     estimated scf accuracy    <          6.7E-12 Ry
     smearing contrib. (-TS)   =       0.00041574 Ry
     internal energy E=F+TS    =     -45.64534529 Ry

     The total energy is F=E-TS. E is the sum of the following terms:
     one-electron contribution =      -7.70861660 Ry
     hartree contribution      =      12.07422304 Ry
     xc contribution           =     -14.13495617 Ry
     ewald contribution        =     -35.87599557 Ry

     convergence has been achieved in  11 iterations

     Forces acting on atoms (cartesian axes, Ry/au):

     atom    1 type  1   force =     0.00000000    0.00000000    0.00000000
     atom    2 type  1   force =    -0.00000000   -0.00000000    0.00000000
     atom    3 type  1   force =     0.00000000    0.00000000   -0.00000000
     atom    4 type  1   force =     0.00000000    0.00000000    0.00000000
     The non-local contrib.  to forces
     atom    1 type  1   force =     0.00000000   -0.00000000    0.00000000
     atom    2 type  1   force =     0.00000000   -0.00000000    0.00000000
     atom    3 type  1   force =     0.00000000    0.00000000    0.00000000
     atom    4 type  1   force =     0.00000000    0.00000000    0.00000000
     The ionic contribution  to forces
     atom    1 type  1   force =     0.00000852   -0.00000492   -0.00000000
     atom    2 type  1   force =    -0.00000856    0.00000494    0.00000000
     atom    3 type  1   force =    -0.00000852    0.00000492    0.00000000
     atom    4 type  1   force =     0.00000856   -0.00000494    0.00000000
     The local contribution  to forces
     atom    1 type  1   force =    -0.00000000    0.00000000    0.00000000
     atom    2 type  1   force =    -0.00000812    0.00000469    0.00000000
     atom    3 type  1   force =     0.00000000   -0.00000000    0.00000000
     atom    4 type  1   force =     0.00000812   -0.00000469    0.00000000
     The core correction contribution to forces
     atom    1 type  1   force =     0.00000000    0.00000000    0.00000000
     atom    2 type  1   force =     0.00000000    0.00000000    0.00000000
     atom    3 type  1   force =     0.00000000    0.00000000    0.00000000
     atom    4 type  1   force =     0.00000000    0.00000000    0.00000000
     The Hubbard contrib.    to forces
     atom    1 type  1   force =     0.00000000    0.00000000    0.00000000
     atom    2 type  1   force =     0.00000000    0.00000000    0.00000000
     atom    3 type  1   force =     0.00000000    0.00000000    0.00000000
     atom    4 type  1   force =     0.00000000    0.00000000    0.00000000
     The SCF correction term to forces
     atom    1 type  1   force =     0.00000000   -0.00000000   -0.00000000
     atom    2 type  1   force =     0.00000000   -0.00000000   -0.00000000
     atom    3 type  1   force =    -0.00000000    0.00000000   -0.00000000
     atom    4 type  1   force =    -0.00000000    0.00000000   -0.00000000

     Total force =     0.000000     Total SCF correction =     0.000000


     Computing stress (Cartesian axis) and pressure

          total   stress  (Ry/bohr**3)                   (kbar)     P=        9.57
   0.00003126  -0.00000000  -0.00000000            4.60       -0.00       -0.00
  -0.00000000   0.00003126   0.00000000           -0.00        4.60        0.00
   0.00000000  -0.00000000   0.00013264            0.00       -0.00       19.51

     kinetic stress (kbar)  11052.79      0.00      0.00
                                0.00  11052.79      0.00
                                0.00      0.00  12798.86

     local   stress (kbar) -16856.74      0.01      0.00
                                0.01 -16856.72     -0.00
                                0.00     -0.00  24157.74

     nonloc. stress (kbar)   -468.38      0.00      0.00
                                0.00   -468.38      0.00
                               -0.00     -0.00   -474.27

     hartree stress (kbar)   6712.65     -0.00      0.00
                               -0.00   6712.65     -0.00
                                0.00     -0.00  -5629.72

     exc-cor stress (kbar)  -2806.40      0.00      0.00
                                0.00  -2806.40      0.00
                                0.00      0.00  -2964.75

     corecor stress (kbar)      0.00      0.00      0.00
                                0.00      0.00      0.00
                                0.00      0.00      0.00

     ewald   stress (kbar)   2365.81     -0.03     -0.00
                               -0.03   2365.78     -0.00
                               -0.00     -0.00 -27894.47

     hubbard stress (kbar)      0.00      0.00      0.00
                                0.00      0.00      0.00
                                0.00      0.00      0.00

     DFT-D   stress (kbar)      0.00      0.00      0.00
                                0.00      0.00      0.00
                                0.00      0.00      0.00

     XDM     stress (kbar)      0.00      0.00      0.00
                                0.00      0.00      0.00
                                0.00      0.00      0.00

     dft-nl  stress (kbar)      4.88     -0.00      0.00
                               -0.00      4.88      0.00
                                0.00      0.00     26.13

     TS-vdW  stress (kbar)      0.00      0.00      0.00
                                0.00      0.00      0.00
                                0.00      0.00      0.00



     BFGS Geometry Optimization
     Energy error            =      0.0E+00
     Gradient error          =      2.4E-22
     Cell gradient error     =      1.3E-04


     number of scf cycles    =   1
     number of bfgs steps    =   0

     enthalpy new            =     -45.6449295552 Ry

     new trust radius        =       0.0100103217 bohr
     new conv_thr            =       0.0000000010 Ry

     new unit-cell volume =    228.95780 a.u.^3 (    33.92805 Ang^3 )
     density =      2.35142 g/cm^3

CELL_PARAMETERS (alat=  4.66006462)
   1.000781579  -0.000000000   0.000000000
  -0.500390790   0.866702271  -0.000000000
  -0.000000000   0.000000000   2.608377166

ATOMIC_POSITIONS (crystal)
C             0.0000000000        1.0000000000        0.7500000000
C             0.6666670000        0.3333330000        0.7500000000
C             0.0000000000        1.0000000000        0.2500000000
C             0.3333330000        0.6666670000        0.2500000000



     Writing output data file ./tmp/graphite.save/
     NEW-OLD atomic charge density approx. for the potential


     ----------------------------------------------------------------

     Non-local correlation energy =              0.054673312850235

     ----------------------------------------------------------------

     extrapolated charge   16.07778, renormalised to   16.00000

     total cpu time spent up to now is        2.0 secs

     Self-consistent Calculation

     iteration #  1     ecut=    30.00 Ry     beta= 0.30
     Davidson diagonalization with overlap
     ethr =  1.00E-06,  avg # of iterations =  3.3


     ----------------------------------------------------------------

     Non-local correlation energy =              0.054318318912660

     ----------------------------------------------------------------


     total cpu time spent up to now is        2.0 secs

     total energy              =     -45.64481320 Ry
     estimated scf accuracy    <       0.00011289 Ry

     iteration #  2     ecut=    30.00 Ry     beta= 0.30
     Davidson diagonalization with overlap
     ethr =  7.06E-07,  avg # of iterations =  3.7


     ----------------------------------------------------------------

     Non-local correlation energy =              0.054357262649274

     ----------------------------------------------------------------


     total cpu time spent up to now is        2.1 secs

     total energy              =     -45.64502964 Ry
     estimated scf accuracy    <       0.00002772 Ry

     iteration #  3     ecut=    30.00 Ry     beta= 0.30
     Davidson diagonalization with overlap
     ethr =  1.73E-07,  avg # of iterations =  1.0


     ----------------------------------------------------------------

     Non-local correlation energy =              0.054472100310769

     ----------------------------------------------------------------


     total cpu time spent up to now is        2.1 secs

     total energy              =     -45.64501986 Ry
     estimated scf accuracy    <       0.00001502 Ry

     iteration #  4     ecut=    30.00 Ry     beta= 0.30
     Davidson diagonalization with overlap
     ethr =  9.39E-08,  avg # of iterations =  2.0


     ----------------------------------------------------------------

     Non-local correlation energy =              0.054459407275941

     ----------------------------------------------------------------


     total cpu time spent up to now is        2.2 secs

     total energy              =     -45.64502348 Ry
     estimated scf accuracy    <       0.00000125 Ry

     iteration #  5     ecut=    30.00 Ry     beta= 0.30
     Davidson diagonalization with overlap
     ethr =  7.81E-09,  avg # of iterations =  1.0


     ----------------------------------------------------------------

     Non-local correlation energy =              0.054441781048057

     ----------------------------------------------------------------


     total cpu time spent up to now is        2.2 secs

     total energy              =     -45.64502319 Ry
     estimated scf accuracy    <       0.00000053 Ry

     iteration #  6     ecut=    30.00 Ry     beta= 0.30
     Davidson diagonalization with overlap
     ethr =  3.34E-09,  avg # of iterations =  2.0


     ----------------------------------------------------------------

     Non-local correlation energy =              0.054441011259793

     ----------------------------------------------------------------


     total cpu time spent up to now is        2.3 secs

     total energy              =     -45.64502325 Ry
     estimated scf accuracy    <       0.00000001 Ry

     iteration #  7     ecut=    30.00 Ry     beta= 0.30
     Davidson diagonalization with overlap
     ethr =  9.31E-11,  avg # of iterations =  1.3


     ----------------------------------------------------------------

     Non-local correlation energy =              0.054436870256144

     ----------------------------------------------------------------


     total cpu time spent up to now is        2.3 secs

     total energy              =     -45.64502325 Ry
     estimated scf accuracy    <          8.2E-09 Ry

     iteration #  8     ecut=    30.00 Ry     beta= 0.30
     Davidson diagonalization with overlap
     ethr =  5.10E-11,  avg # of iterations =  2.0


     ----------------------------------------------------------------

     Non-local correlation energy =              0.054437441470362

     ----------------------------------------------------------------


     total cpu time spent up to now is        2.4 secs

     total energy              =     -45.64502325 Ry
     estimated scf accuracy    <          3.4E-09 Ry

     iteration #  9     ecut=    30.00 Ry     beta= 0.30
     Davidson diagonalization with overlap
     ethr =  2.15E-11,  avg # of iterations =  1.0


     ----------------------------------------------------------------

     Non-local correlation energy =              0.054437980421356

     ----------------------------------------------------------------


     total cpu time spent up to now is        2.4 secs

     total energy              =     -45.64502325 Ry
     estimated scf accuracy    <          1.6E-09 Ry

     iteration # 10     ecut=    30.00 Ry     beta= 0.30
     Davidson diagonalization with overlap
     ethr =  9.75E-12,  avg # of iterations =  1.0


     ----------------------------------------------------------------

     Non-local correlation energy =              0.054438882010165

     ----------------------------------------------------------------


     total cpu time spent up to now is        2.5 secs

     End of self-consistent calculation

          k = 0.1249 0.2163 0.0958 (   626 PWs)   bands (ev):

   -11.0194 -10.7394   0.3725   1.1908   1.2370   2.0372   2.2833   2.3159
    13.9398  15.3836  15.7551  16.6287

     occupation numbers 
     1.0000   1.0000   1.0000   1.0000   1.0000   1.0000   1.0000   1.0000
     0.0000   0.0000   0.0000   0.0000

          k = 0.1249 0.5048 0.0958 (   635 PWs)   bands (ev):

    -7.5041  -7.2927  -4.5875  -4.4269   0.0002   0.0841   4.3435   5.4280
     9.3391  10.0608  16.2248  16.6433

     occupation numbers 
     1.0000   1.0000   1.0000   1.0000   1.0000   1.0000   1.0000   1.0000
     0.0000   0.0000   0.0000   0.0000

          k = 0.1249-0.3606 0.0958 (   638 PWs)   bands (ev):

    -9.5737  -9.3190  -1.5992  -1.4866   0.7676   0.8378   2.0850   3.6096
    12.2925  12.9105  15.6018  16.6076

     occupation numbers 
     1.0000   1.0000   1.0000   1.0000   1.0000   1.0000   1.0000   1.0000
     0.0000   0.0000   0.0000   0.0000

          k = 0.1249-0.0721 0.0958 (   616 PWs)   bands (ev):

   -11.7540 -11.4611  -0.5127   1.2069   2.9745   3.0250   3.6533   3.6907
    13.0876  15.8126  15.9477  17.4152

     occupation numbers 
     1.0000   1.0000   1.0000   1.0000   1.0000   1.0000   1.0000   1.0000
     0.0000   0.0000   0.0000   0.0000

          k = 0.3747 0.6490 0.0958 (   638 PWs)   bands (ev):

    -5.9009  -5.7968  -4.9619  -4.9190  -2.2739  -2.1716   6.0442   6.6496
     8.3909   8.5486  18.0061  18.1778

     occupation numbers 
     1.0000   1.0000   1.0000   1.0000   1.0000   1.0000   1.0008   0.9992
     0.0000   0.0000   0.0000   0.0000

          k = 0.3747-0.2163 0.0958 (   632 PWs)   bands (ev):

    -8.8647  -8.6230  -3.2894  -3.1372   1.3638   1.4212   2.8750   4.2770
    10.7780  11.6736  14.9022  15.2425

     occupation numbers 
     1.0000   1.0000   1.0000   1.0000   1.0000   1.0000   1.0000   1.0000
     0.0000   0.0000   0.0000   0.0000

     the Fermi energy is     6.8997 ev

!    total energy              =     -45.64502325 Ry
     estimated scf accuracy    <          4.2E-10 Ry
     smearing contrib. (-TS)   =       0.00041704 Ry
     internal energy E=F+TS    =     -45.64544029 Ry

     The total energy is F=E-TS. E is the sum of the following terms:
     one-electron contribution =      -7.93137382 Ry
     hartree contribution      =      12.15194745 Ry
     xc contribution           =     -14.12735773 Ry
     ewald contribution        =     -35.73865619 Ry

     convergence has been achieved in  10 iterations

     Forces acting on atoms (cartesian axes, Ry/au):

     atom    1 type  1   force =     0.00000000    0.00000000   -0.00000000
     atom    2 type  1   force =    -0.00000000   -0.00000000    0.00000000
     atom    3 type  1   force =    -0.00000000   -0.00000000    0.00000000
     atom    4 type  1   force =    -0.00000000   -0.00000000    0.00000000
     The non-local contrib.  to forces
     atom    1 type  1   force =     0.00000000    0.00000000   -0.00000000
     atom    2 type  1   force =     0.00000000    0.00000000    0.00000000
     atom    3 type  1   force =     0.00000000   -0.00000000    0.00000000
     atom    4 type  1   force =    -0.00000000   -0.00000000    0.00000000
     The ionic contribution  to forces
     atom    1 type  1   force =     0.00000851   -0.00000491   -0.00000000
     atom    2 type  1   force =    -0.00000854    0.00000493   -0.00000000
     atom    3 type  1   force =    -0.00000851    0.00000491   -0.00000000
     atom    4 type  1   force =     0.00000854   -0.00000493   -0.00000000
     The local contribution  to forces
     atom    1 type  1   force =    -0.00000000    0.00000000    0.00000000
     atom    2 type  1   force =    -0.00000813    0.00000469    0.00000000
     atom    3 type  1   force =     0.00000000   -0.00000000    0.00000000
     atom    4 type  1   force =     0.00000813   -0.00000469    0.00000000
     The core correction contribution to forces
     atom    1 type  1   force =     0.00000000    0.00000000    0.00000000
     atom    2 type  1   force =     0.00000000    0.00000000    0.00000000
     atom    3 type  1   force =     0.00000000    0.00000000    0.00000000
     atom    4 type  1   force =     0.00000000    0.00000000    0.00000000
     The Hubbard contrib.    to forces
     atom    1 type  1   force =     0.00000000    0.00000000    0.00000000
     atom    2 type  1   force =     0.00000000    0.00000000    0.00000000
     atom    3 type  1   force =     0.00000000    0.00000000    0.00000000
     atom    4 type  1   force =     0.00000000    0.00000000    0.00000000
     The SCF correction term to forces
     atom    1 type  1   force =     0.00000000   -0.00000000    0.00000000
     atom    2 type  1   force =    -0.00000000    0.00000000   -0.00000000
     atom    3 type  1   force =    -0.00000000    0.00000000    0.00000000
     atom    4 type  1   force =     0.00000000   -0.00000000   -0.00000000

     Total force =     0.000000     Total SCF correction =     0.000000


     Computing stress (Cartesian axis) and pressure

          total   stress  (Ry/bohr**3)                   (kbar)     P=        2.32
  -0.00003515  -0.00000000  -0.00000000           -5.17       -0.00       -0.00
  -0.00000000  -0.00003515   0.00000000           -0.00       -5.17        0.00
  -0.00000000   0.00000000   0.00011756           -0.00        0.00       17.29

     kinetic stress (kbar)  10988.94     -0.00      0.00
                               -0.00  10988.94      0.00
                                0.00      0.00  12728.78

     local   stress (kbar) -16894.29      0.01      0.00
                                0.01 -16894.28      0.00
                                0.00      0.00  24137.76

     nonloc. stress (kbar)   -464.17      0.00      0.00
                                0.00   -464.17      0.00
                                0.00      0.00   -470.42

     hartree stress (kbar)   6728.32     -0.00      0.00
                               -0.00   6728.32     -0.00
                                0.00     -0.00  -5649.04

     exc-cor stress (kbar)  -2791.29      0.00     -0.00
                                0.00  -2791.29      0.00
                               -0.00      0.00  -2948.94

     corecor stress (kbar)      0.00      0.00      0.00
                                0.00      0.00      0.00
                                0.00      0.00      0.00

     ewald   stress (kbar)   2422.48     -0.03     -0.00
                               -0.03   2422.45     -0.00
                               -0.00     -0.00 -27806.96

     hubbard stress (kbar)      0.00      0.00      0.00
                                0.00      0.00      0.00
                                0.00      0.00      0.00

     DFT-D   stress (kbar)      0.00      0.00      0.00
                                0.00      0.00      0.00
                                0.00      0.00      0.00

     XDM     stress (kbar)      0.00      0.00      0.00
                                0.00      0.00      0.00
                                0.00      0.00      0.00

     dft-nl  stress (kbar)      4.86     -0.00     -0.00
                               -0.00      4.86      0.00
                               -0.00      0.00     26.10

     TS-vdW  stress (kbar)      0.00      0.00      0.00
                                0.00      0.00      0.00
                                0.00      0.00      0.00


     Energy error            =      9.4E-05
     Gradient error          =      2.4E-22
     Cell gradient error     =      1.2E-04


     number of scf cycles    =   2
     number of bfgs steps    =   1

     enthalpy old            =     -45.6449295552 Ry
     enthalpy new            =     -45.6450232482 Ry

     CASE: enthalpy_new < enthalpy_old

     new trust radius        =       0.0150023660 bohr
     new conv_thr            =            1.0E-11 Ry

     new unit-cell volume =    230.10251 a.u.^3 (    34.09767 Ang^3 )
     density =      2.33972 g/cm^3

CELL_PARAMETERS (alat=  4.66006462)
   1.000802620   0.000000000   0.000000000
  -0.500401310   0.866720493  -0.000000000
  -0.000000000   0.000000000   2.621307877

ATOMIC_POSITIONS (crystal)
C             0.0000000000        1.0000000000        0.7500000000
C             0.6666670000        0.3333330000        0.7500000000
C             0.0000000000        1.0000000000        0.2500000000
C             0.3333330000        0.6666670000        0.2500000000



     Writing output data file ./tmp/graphite.save/
     NEW-OLD atomic charge density approx. for the potential


     ----------------------------------------------------------------

     Non-local correlation energy =              0.054977228783621

     ----------------------------------------------------------------

     extrapolated charge   16.07960, renormalised to   16.00000

     total cpu time spent up to now is        2.6 secs

     Self-consistent Calculation

     iteration #  1     ecut=    30.00 Ry     beta= 0.30
     Davidson diagonalization with overlap
     ethr =  1.00E-06,  avg # of iterations =  4.7


     ----------------------------------------------------------------

     Non-local correlation energy =              0.054619072342776

     ----------------------------------------------------------------


     total cpu time spent up to now is        2.6 secs

     total energy              =     -45.64492632 Ry
     estimated scf accuracy    <       0.00009831 Ry

     iteration #  2     ecut=    30.00 Ry     beta= 0.30
     Davidson diagonalization with overlap
     c_bands:  1 eigenvalues not converged
     ethr =  6.14E-07,  avg # of iterations =  5.8


     ----------------------------------------------------------------

     Non-local correlation energy =              0.054659263949377

     ----------------------------------------------------------------


     total cpu time spent up to now is        2.7 secs

     total energy              =     -45.64515238 Ry
     estimated scf accuracy    <       0.00004040 Ry

     iteration #  3     ecut=    30.00 Ry     beta= 0.30
     Davidson diagonalization with overlap
     ethr =  2.52E-07,  avg # of iterations =  2.8


     ----------------------------------------------------------------

     Non-local correlation energy =              0.054799107020417

     ----------------------------------------------------------------


     total cpu time spent up to now is        2.7 secs

     total energy              =     -45.64513737 Ry
     estimated scf accuracy    <       0.00002317 Ry

     iteration #  4     ecut=    30.00 Ry     beta= 0.30
     Davidson diagonalization with overlap
     ethr =  1.45E-07,  avg # of iterations =  2.0


     ----------------------------------------------------------------

     Non-local correlation energy =              0.054776593790145

     ----------------------------------------------------------------


     total cpu time spent up to now is        2.8 secs

     total energy              =     -45.64514301 Ry
     estimated scf accuracy    <       0.00000293 Ry

     iteration #  5     ecut=    30.00 Ry     beta= 0.30
     Davidson diagonalization with overlap
     ethr =  1.83E-08,  avg # of iterations =  1.0


     ----------------------------------------------------------------

     Non-local correlation energy =              0.054746755690745

     ----------------------------------------------------------------


     total cpu time spent up to now is        2.8 secs

     total energy              =     -45.64514249 Ry
     estimated scf accuracy    <       0.00000089 Ry

     iteration #  6     ecut=    30.00 Ry     beta= 0.30
     Davidson diagonalization with overlap
     ethr =  5.58E-09,  avg # of iterations =  2.0


     ----------------------------------------------------------------

     Non-local correlation energy =              0.054752199693450

     ----------------------------------------------------------------


     total cpu time spent up to now is        2.9 secs

     total energy              =     -45.64514267 Ry
     estimated scf accuracy    <       0.00000001 Ry

     iteration #  7     ecut=    30.00 Ry     beta= 0.30
     Davidson diagonalization with overlap
     ethr =  7.20E-11,  avg # of iterations =  2.0


     ----------------------------------------------------------------

     Non-local correlation energy =              0.054747749152194

     ----------------------------------------------------------------


     total cpu time spent up to now is        2.9 secs

     total energy              =     -45.64514267 Ry
     estimated scf accuracy    <          8.8E-09 Ry

     iteration #  8     ecut=    30.00 Ry     beta= 0.30
     Davidson diagonalization with overlap
     ethr =  5.51E-11,  avg # of iterations =  2.0


     ----------------------------------------------------------------

     Non-local correlation energy =              0.054749814384484

     ----------------------------------------------------------------


     total cpu time spent up to now is        3.0 secs

     total energy              =     -45.64514267 Ry
     estimated scf accuracy    <          5.0E-09 Ry

     iteration #  9     ecut=    30.00 Ry     beta= 0.30
     Davidson diagonalization with overlap
     ethr =  3.11E-11,  avg # of iterations =  2.0


     ----------------------------------------------------------------

     Non-local correlation energy =              0.054749750992046

     ----------------------------------------------------------------


     total cpu time spent up to now is        3.0 secs

     End of self-consistent calculation

          k = 0.1249 0.2163 0.0954 (   626 PWs)   bands (ev):

   -11.0728 -10.8026   0.3301   1.1324   1.1765   1.9580   2.2244   2.2556
    13.8133  15.3324  15.6930  16.5686

     occupation numbers 
     1.0000   1.0000   1.0000   1.0000   1.0000   1.0000   1.0000   1.0000
     0.0000   0.0000   0.0000   0.0000

          k = 0.1249 0.5048 0.0954 (   635 PWs)   bands (ev):

    -7.5589  -7.3552  -4.6434  -4.4888  -0.0574   0.0231   4.2981   5.3579
     9.2863   9.9927  16.1716  16.5776

     occupation numbers 
     1.0000   1.0000   1.0000   1.0000   1.0000   1.0000   1.0000   1.0000
     0.0000   0.0000   0.0000   0.0000

          k = 0.1249-0.3606 0.0954 (   638 PWs)   bands (ev):

    -9.6276  -9.3820  -1.6562  -1.5480   0.7097   0.7769   2.0420   3.5323
    12.2426  12.8449  15.4839  16.5522

     occupation numbers 
     1.0000   1.0000   1.0000   1.0000   1.0000   1.0000   1.0000   1.0000
     0.0000   0.0000   0.0000   0.0000

          k = 0.1249-0.0721 0.0954 (   616 PWs)   bands (ev):

   -11.8072 -11.5245  -0.5549   1.1270   2.9159   2.9642   3.5945   3.6301
    12.9578  15.7547  15.8858  17.1944

     occupation numbers 
     1.0000   1.0000   1.0000   1.0000   1.0000   1.0000   1.0000   1.0000
     0.0000   0.0000   0.0000   0.0000

          k = 0.3747 0.6490 0.0954 (   638 PWs)   bands (ev):

    -5.9574  -5.8572  -5.0204  -4.9791  -2.3309  -2.2326   5.9972   6.5883
     8.3326   8.4827  17.9393  18.1078

     occupation numbers 
     1.0000   1.0000   1.0000   1.0000   1.0000   1.0000   1.0010   0.9990
     0.0000   0.0000   0.0000   0.0000

          k = 0.3747-0.2163 0.0954 (   632 PWs)   bands (ev):

    -8.9189  -8.6859  -3.3455  -3.1991   1.3056   1.3604   2.8313   4.2016
    10.7290  11.6038  14.8485  15.1763

     occupation numbers 
     1.0000   1.0000   1.0000   1.0000   1.0000   1.0000   1.0000   1.0000
     0.0000   0.0000   0.0000   0.0000

     the Fermi energy is     6.8382 ev

!    total energy              =     -45.64514267 Ry
     estimated scf accuracy    <          1.4E-12 Ry
     smearing contrib. (-TS)   =       0.00041943 Ry
     internal energy E=F+TS    =     -45.64556210 Ry

     The total energy is F=E-TS. E is the sum of the following terms:
     one-electron contribution =      -8.29207596 Ry
     hartree contribution      =      12.29649193 Ry
     xc contribution           =     -14.12570332 Ry
     ewald contribution        =     -35.52427475 Ry

     convergence has been achieved in   9 iterations

     Forces acting on atoms (cartesian axes, Ry/au):

     atom    1 type  1   force =    -0.00000000    0.00000000   -0.00000000
     atom    2 type  1   force =     0.00000000    0.00000000    0.00000000
     atom    3 type  1   force =     0.00000000   -0.00000000    0.00000000
     atom    4 type  1   force =    -0.00000000    0.00000000    0.00000000
     The non-local contrib.  to forces
     atom    1 type  1   force =     0.00000000   -0.00000000    0.00000000
     atom    2 type  1   force =     0.00000000    0.00000000    0.00000000
     atom    3 type  1   force =    -0.00000000    0.00000000   -0.00000000
     atom    4 type  1   force =     0.00000000    0.00000000    0.00000000
     The ionic contribution  to forces
     atom    1 type  1   force =     0.00000851   -0.00000491   -0.00000000
     atom    2 type  1   force =    -0.00000854    0.00000493   -0.00000000
     atom    3 type  1   force =    -0.00000851    0.00000491   -0.00000000
     atom    4 type  1   force =     0.00000854   -0.00000493   -0.00000000
     The local contribution  to forces
     atom    1 type  1   force =    -0.00000000    0.00000000    0.00000000
     atom    2 type  1   force =    -0.00000813    0.00000469    0.00000000
     atom    3 type  1   force =     0.00000000   -0.00000000    0.00000000
     atom    4 type  1   force =     0.00000813   -0.00000469    0.00000000
     The core correction contribution to forces
     atom    1 type  1   force =     0.00000000    0.00000000    0.00000000
     atom    2 type  1   force =     0.00000000    0.00000000    0.00000000
     atom    3 type  1   force =     0.00000000    0.00000000    0.00000000
     atom    4 type  1   force =     0.00000000    0.00000000    0.00000000
     The Hubbard contrib.    to forces
     atom    1 type  1   force =     0.00000000    0.00000000    0.00000000
     atom    2 type  1   force =     0.00000000    0.00000000    0.00000000
     atom    3 type  1   force =     0.00000000    0.00000000    0.00000000
     atom    4 type  1   force =     0.00000000    0.00000000    0.00000000
     The SCF correction term to forces
     atom    1 type  1   force =    -0.00000000    0.00000000    0.00000000
     atom    2 type  1   force =     0.00000000   -0.00000000    0.00000000
     atom    3 type  1   force =     0.00000000   -0.00000000   -0.00000000
     atom    4 type  1   force =    -0.00000000    0.00000000   -0.00000000

     Total force =     0.000000     Total SCF correction =     0.000000


     Computing stress (Cartesian axis) and pressure

          total   stress  (Ry/bohr**3)                   (kbar)     P=        1.14
  -0.00003540   0.00000000  -0.00000000           -5.21        0.00       -0.00
   0.00000000  -0.00003540  -0.00000000            0.00       -5.21       -0.00
  -0.00000000  -0.00000000   0.00009409           -0.00       -0.00       13.84

     kinetic stress (kbar)  10933.68     -0.00      0.00
                               -0.00  10933.68     -0.00
                                0.00     -0.00  12662.37

     local   stress (kbar) -17038.25      0.01     -0.00
                                0.01 -17038.24      0.00
                               -0.00      0.00  24244.23

     nonloc. stress (kbar)   -461.89      0.00     -0.00
                                0.00   -461.89     -0.00
                                0.00      0.00   -467.96

     hartree stress (kbar)   6787.06      0.00      0.00
                                0.00   6787.06      0.00
                                0.00      0.00  -5712.95

     exc-cor stress (kbar)  -2777.13      0.00      0.00
                                0.00  -2777.13      0.00
                                0.00      0.00  -2934.24

     corecor stress (kbar)      0.00      0.00      0.00
                                0.00      0.00      0.00
                                0.00      0.00      0.00

     ewald   stress (kbar)   2546.51     -0.03     -0.00
                               -0.03   2546.48      0.00
                               -0.00      0.00 -27803.74

     hubbard stress (kbar)      0.00      0.00      0.00
                                0.00      0.00      0.00
                                0.00      0.00      0.00

     DFT-D   stress (kbar)      0.00      0.00      0.00
                                0.00      0.00      0.00
                                0.00      0.00      0.00

     XDM     stress (kbar)      0.00      0.00      0.00
                                0.00      0.00      0.00
                                0.00      0.00      0.00

     dft-nl  stress (kbar)      4.82     -0.00     -0.00
                               -0.00      4.82      0.00
                               -0.00      0.00     26.14

     TS-vdW  stress (kbar)      0.00      0.00      0.00
                                0.00      0.00      0.00
                                0.00      0.00      0.00


     Energy error            =      1.2E-04
     Gradient error          =      8.1E-23
     Cell gradient error     =      9.4E-05


     number of scf cycles    =   3
     number of bfgs steps    =   2

     enthalpy old            =     -45.6450232482 Ry
     enthalpy new            =     -45.6451426735 Ry

     CASE: enthalpy_new < enthalpy_old

     new trust radius        =       0.0224484481 bohr
     new conv_thr            =            1.0E-11 Ry

     new unit-cell volume =    231.74967 a.u.^3 (    34.34176 Ang^3 )
     density =      2.32309 g/cm^3

CELL_PARAMETERS (alat=  4.66006462)
   1.000682907   0.000000000   0.000000000
  -0.500341454   0.866616819  -0.000000000
  -0.000000000   0.000000000   2.640703945

ATOMIC_POSITIONS (crystal)
C             0.0000000000        1.0000000000        0.7500000000
C             0.6666670000        0.3333330000        0.7500000000
C             0.0000000000        1.0000000000        0.2500000000
C             0.3333330000        0.6666670000        0.2500000000



     Writing output data file ./tmp/graphite.save/
     NEW-OLD atomic charge density approx. for the potential


     ----------------------------------------------------------------

     Non-local correlation energy =              0.055535385164206

     ----------------------------------------------------------------

     extrapolated charge   16.11372, renormalised to   16.00000

     total cpu time spent up to now is        3.2 secs

     Self-consistent Calculation

     iteration #  1     ecut=    30.00 Ry     beta= 0.30
     Davidson diagonalization with overlap
     ethr =  1.00E-06,  avg # of iterations =  5.0


     ----------------------------------------------------------------

     Non-local correlation energy =              0.055019237852859

     ----------------------------------------------------------------


     total cpu time spent up to now is        3.2 secs

     total energy              =     -45.64483078 Ry
     estimated scf accuracy    <       0.00019714 Ry

     iteration #  2     ecut=    30.00 Ry     beta= 0.30
     Davidson diagonalization with overlap
     ethr =  1.23E-06,  avg # of iterations =  3.5


     ----------------------------------------------------------------

     Non-local correlation energy =              0.055077629374265

     ----------------------------------------------------------------


     total cpu time spent up to now is        3.3 secs

     total energy              =     -45.64529765 Ry
     estimated scf accuracy    <       0.00008821 Ry

     iteration #  3     ecut=    30.00 Ry     beta= 0.30
     Davidson diagonalization with overlap
     ethr =  5.51E-07,  avg # of iterations =  1.0


     ----------------------------------------------------------------

     Non-local correlation energy =              0.055288674020649

     ----------------------------------------------------------------


     total cpu time spent up to now is        3.3 secs

     total energy              =     -45.64526454 Ry
     estimated scf accuracy    <       0.00005084 Ry

     iteration #  4     ecut=    30.00 Ry     beta= 0.30
     Davidson diagonalization with overlap
     ethr =  3.18E-07,  avg # of iterations =  2.0


     ----------------------------------------------------------------

     Non-local correlation energy =              0.055250222371575

     ----------------------------------------------------------------


     total cpu time spent up to now is        3.4 secs

     total energy              =     -45.64527694 Ry
     estimated scf accuracy    <       0.00000745 Ry

     iteration #  5     ecut=    30.00 Ry     beta= 0.30
     Davidson diagonalization with overlap
     ethr =  4.66E-08,  avg # of iterations =  1.0


     ----------------------------------------------------------------

     Non-local correlation energy =              0.055207072869016

     ----------------------------------------------------------------


     total cpu time spent up to now is        3.4 secs

     total energy              =     -45.64527596 Ry
     estimated scf accuracy    <       0.00000187 Ry

     iteration #  6     ecut=    30.00 Ry     beta= 0.30
     Davidson diagonalization with overlap
     ethr =  1.17E-08,  avg # of iterations =  2.0


     ----------------------------------------------------------------

     Non-local correlation energy =              0.055215300629630

     ----------------------------------------------------------------


     total cpu time spent up to now is        3.5 secs

     total energy              =     -45.64527634 Ry
     estimated scf accuracy    <       0.00000002 Ry

     iteration #  7     ecut=    30.00 Ry     beta= 0.30
     Davidson diagonalization with overlap
     ethr =  1.45E-10,  avg # of iterations =  2.0


     ----------------------------------------------------------------

     Non-local correlation energy =              0.055207645528657

     ----------------------------------------------------------------


     total cpu time spent up to now is        3.5 secs

     total energy              =     -45.64527634 Ry
     estimated scf accuracy    <       0.00000002 Ry

     iteration #  8     ecut=    30.00 Ry     beta= 0.30
     Davidson diagonalization with overlap
     ethr =  1.45E-10,  avg # of iterations =  2.0


     ----------------------------------------------------------------

     Non-local correlation energy =              0.055211151668443

     ----------------------------------------------------------------


     total cpu time spent up to now is        3.6 secs

     total energy              =     -45.64527634 Ry
     estimated scf accuracy    <       0.00000002 Ry

     iteration #  9     ecut=    30.00 Ry     beta= 0.30
     Davidson diagonalization with overlap
     ethr =  1.02E-10,  avg # of iterations =  2.0


     ----------------------------------------------------------------

     Non-local correlation energy =              0.055210896697127

     ----------------------------------------------------------------


     total cpu time spent up to now is        3.6 secs

     total energy              =     -45.64527634 Ry
     estimated scf accuracy    <          3.5E-11 Ry

     iteration # 10     ecut=    30.00 Ry     beta= 0.30
     Davidson diagonalization with overlap
     ethr =  2.20E-13,  avg # of iterations =  2.0


     ----------------------------------------------------------------

     Non-local correlation energy =              0.055211272405590

     ----------------------------------------------------------------


     total cpu time spent up to now is        3.7 secs

     total energy              =     -45.64527634 Ry
     estimated scf accuracy    <          1.6E-10 Ry

     iteration # 11     ecut=    30.00 Ry     beta= 0.30
     Davidson diagonalization with overlap
     ethr =  2.20E-13,  avg # of iterations =  2.0


     ----------------------------------------------------------------

     Non-local correlation energy =              0.055211252352777

     ----------------------------------------------------------------


     total cpu time spent up to now is        3.8 secs

     End of self-consistent calculation

          k = 0.1249 0.2164 0.0947 (   626 PWs)   bands (ev):

   -11.1521 -10.8961   0.2682   1.0486   1.0900   1.8420   2.1396   2.1689
    13.6296  15.2631  15.6078  16.4858

     occupation numbers 
     1.0000   1.0000   1.0000   1.0000   1.0000   1.0000   1.0000   1.0000
     0.0000   0.0000   0.0000   0.0000

          k = 0.1249 0.5048 0.0947 (   635 PWs)   bands (ev):

    -7.6392  -7.4466  -4.7250  -4.5791  -0.1410  -0.0655   4.2332   5.2566
     9.2122   9.8963  16.1007  16.4885

     occupation numbers 
     1.0000   1.0000   1.0000   1.0000   1.0000   1.0000   1.0000   1.0000
     0.0000   0.0000   0.0000   0.0000

          k = 0.1249-0.3606 0.0947 (   638 PWs)   bands (ev):

    -9.7073  -9.4748  -1.7384  -1.6366   0.6259   0.6889   1.9796   3.4197
    12.1739  12.7534  15.3129  16.4778

     occupation numbers 
     1.0000   1.0000   1.0000   1.0000   1.0000   1.0000   1.0000   1.0000
     0.0000   0.0000   0.0000   0.0000

          k = 0.1249-0.0721 0.0947 (   616 PWs)   bands (ev):

   -11.8863 -11.6184  -0.6168   1.0096   2.8323   2.8775   3.5103   3.5436
    12.7689  15.6751  15.8008  17.1140

     occupation numbers 
     1.0000   1.0000   1.0000   1.0000   1.0000   1.0000   1.0000   1.0000
     0.0000   0.0000   0.0000   0.0000

          k = 0.3747 0.6491 0.0947 (   638 PWs)   bands (ev):

    -6.0394  -5.9448  -5.1059  -5.0666  -2.4146  -2.3220   5.9303   6.5003
     8.2502   8.3891  17.8454  18.0089

     occupation numbers 
     1.0000   1.0000   1.0000   1.0000   1.0000   1.0000   1.0014   0.9986
     0.0000   0.0000   0.0000   0.0000

          k = 0.3747-0.2164 0.0947 (   632 PWs)   bands (ev):

    -8.9988  -8.7782  -3.4270  -3.2891   1.2214   1.2726   2.7683   4.0921
    10.6609  11.5053  14.7763  15.0861

     occupation numbers 
     1.0000   1.0000   1.0000   1.0000   1.0000   1.0000   1.0000   1.0000
     0.0000   0.0000   0.0000   0.0000

     the Fermi energy is     6.7500 ev

!    total energy              =     -45.64527634 Ry
     estimated scf accuracy    <          1.7E-13 Ry
     smearing contrib. (-TS)   =       0.00042393 Ry
     internal energy E=F+TS    =     -45.64570027 Ry

     The total energy is F=E-TS. E is the sum of the following terms:
     one-electron contribution =      -8.83803354 Ry
     hartree contribution      =      12.51838489 Ry
     xc contribution           =     -14.12460484 Ry
     ewald contribution        =     -35.20144679 Ry

     convergence has been achieved in  11 iterations

     Forces acting on atoms (cartesian axes, Ry/au):

     atom    1 type  1   force =    -0.00000000    0.00000000   -0.00000000
     atom    2 type  1   force =    -0.00000000   -0.00000000   -0.00000000
     atom    3 type  1   force =     0.00000000    0.00000000   -0.00000000
     atom    4 type  1   force =    -0.00000000   -0.00000000   -0.00000000
     The non-local contrib.  to forces
     atom    1 type  1   force =     0.00000000    0.00000000   -0.00000000
     atom    2 type  1   force =     0.00000000    0.00000000   -0.00000000
     atom    3 type  1   force =     0.00000000   -0.00000000    0.00000000
     atom    4 type  1   force =    -0.00000000   -0.00000000    0.00000000
     The ionic contribution  to forces
     atom    1 type  1   force =     0.00000851   -0.00000491   -0.00000000
     atom    2 type  1   force =    -0.00000854    0.00000493   -0.00000000
     atom    3 type  1   force =    -0.00000851    0.00000491   -0.00000000
     atom    4 type  1   force =     0.00000854   -0.00000493   -0.00000000
     The local contribution  to forces
     atom    1 type  1   force =    -0.00000000    0.00000000    0.00000000
     atom    2 type  1   force =    -0.00000813    0.00000469    0.00000000
     atom    3 type  1   force =     0.00000000   -0.00000000    0.00000000
     atom    4 type  1   force =     0.00000813   -0.00000469    0.00000000
     The core correction contribution to forces
     atom    1 type  1   force =     0.00000000    0.00000000    0.00000000
     atom    2 type  1   force =     0.00000000    0.00000000    0.00000000
     atom    3 type  1   force =     0.00000000    0.00000000    0.00000000
     atom    4 type  1   force =     0.00000000    0.00000000    0.00000000
     The Hubbard contrib.    to forces
     atom    1 type  1   force =     0.00000000    0.00000000    0.00000000
     atom    2 type  1   force =     0.00000000    0.00000000    0.00000000
     atom    3 type  1   force =     0.00000000    0.00000000    0.00000000
     atom    4 type  1   force =     0.00000000    0.00000000    0.00000000
     The SCF correction term to forces
     atom    1 type  1   force =    -0.00000000    0.00000000    0.00000000
     atom    2 type  1   force =     0.00000000   -0.00000000    0.00000000
     atom    3 type  1   force =     0.00000000   -0.00000000   -0.00000000
     atom    4 type  1   force =    -0.00000000    0.00000000   -0.00000000

     Total force =     0.000000     Total SCF correction =     0.000000


     Computing stress (Cartesian axis) and pressure

          total   stress  (Ry/bohr**3)                   (kbar)     P=        0.75
  -0.00002303   0.00000000  -0.00000000           -3.39        0.00       -0.00
   0.00000000  -0.00002303   0.00000000            0.00       -3.39        0.00
   0.00000000  -0.00000000   0.00006138            0.00       -0.00        9.03

     kinetic stress (kbar)  10857.04     -0.00     -0.00
                               -0.00  10857.04     -0.00
                               -0.00     -0.00  12569.22

     local   stress (kbar) -17264.28      0.01      0.00
                                0.01 -17264.27      0.00
                                0.00      0.00  24421.02

     nonloc. stress (kbar)   -459.01      0.00     -0.00
                                0.00   -459.01     -0.00
                                0.00      0.00   -464.80

     hartree stress (kbar)   6879.67      0.00      0.00
                                0.00   6879.67      0.00
                                0.00      0.00  -5813.20

     exc-cor stress (kbar)  -2757.25      0.00      0.00
                                0.00  -2757.25      0.00
                                0.00      0.00  -2913.63

     corecor stress (kbar)      0.00      0.00      0.00
                                0.00      0.00      0.00
                                0.00      0.00      0.00

     ewald   stress (kbar)   2735.69     -0.03      0.00
                               -0.03   2735.67      0.00
                                0.00      0.00 -27815.78

     hubbard stress (kbar)      0.00      0.00      0.00
                                0.00      0.00      0.00
                                0.00      0.00      0.00

     DFT-D   stress (kbar)      0.00      0.00      0.00
                                0.00      0.00      0.00
                                0.00      0.00      0.00

     XDM     stress (kbar)      0.00      0.00      0.00
                                0.00      0.00      0.00
                                0.00      0.00      0.00

     dft-nl  stress (kbar)      4.76     -0.00     -0.00
                               -0.00      4.76      0.00
                               -0.00      0.00     26.20

     TS-vdW  stress (kbar)      0.00      0.00      0.00
                                0.00      0.00      0.00
                                0.00      0.00      0.00


     Energy error            =      1.3E-04
     Gradient error          =      1.4E-22
     Cell gradient error     =      6.1E-05


     number of scf cycles    =   4
     number of bfgs steps    =   3

     enthalpy old            =     -45.6451426735 Ry
     enthalpy new            =     -45.6452763430 Ry

     CASE: enthalpy_new < enthalpy_old

     new trust radius        =       0.0335447678 bohr
     new conv_thr            =            1.0E-11 Ry

     new unit-cell volume =    234.21763 a.u.^3 (    34.70747 Ang^3 )
     density =      2.29861 g/cm^3

CELL_PARAMETERS (alat=  4.66006462)
   1.000500616   0.000000000   0.000000000
  -0.500250308   0.866458950  -0.000000000
  -0.000000000   0.000000000   2.669798046

ATOMIC_POSITIONS (crystal)
C             0.0000000000        1.0000000000        0.7500000000
C             0.6666670000        0.3333330000        0.7500000000
C             0.0000000000        1.0000000000        0.2500000000
C             0.3333330000        0.6666670000        0.2500000000



     Writing output data file ./tmp/graphite.save/
     NEW-OLD atomic charge density approx. for the potential


     ----------------------------------------------------------------

     Non-local correlation energy =              0.056379399938200

     ----------------------------------------------------------------

     extrapolated charge   16.16859, renormalised to   16.00000

     total cpu time spent up to now is        3.9 secs

     Self-consistent Calculation

     iteration #  1     ecut=    30.00 Ry     beta= 0.30
     Davidson diagonalization with overlap
     ethr =  1.00E-06,  avg # of iterations =  7.5


     ----------------------------------------------------------------

     Non-local correlation energy =              0.055600475166103

     ----------------------------------------------------------------


     total cpu time spent up to now is        3.9 secs

     total energy              =     -45.64436633 Ry
     estimated scf accuracy    <       0.00044578 Ry

     iteration #  2     ecut=    30.00 Ry     beta= 0.30
     Davidson diagonalization with overlap
     ethr =  2.79E-06,  avg # of iterations =  3.7


     ----------------------------------------------------------------

     Non-local correlation energy =              0.055689309377448

     ----------------------------------------------------------------


     total cpu time spent up to now is        4.0 secs

     total energy              =     -45.64542433 Ry
     estimated scf accuracy    <       0.00020252 Ry

     iteration #  3     ecut=    30.00 Ry     beta= 0.30
     Davidson diagonalization with overlap
[...]
         4           C   tau(   4) = (  0.3333330  0.6666670  0.2500000  )

     number of k points=     6  Marzari-Vanderbilt smearing, width (Ry)=  0.0200
                       cart. coord. in units 2pi/alat
        k(    1) = (   0.1249437   0.2164088   0.0932802), wk =   0.2500000
        k(    2) = (   0.1249437   0.5049538   0.0932802), wk =   0.5000000
        k(    3) = (   0.1249437  -0.3606813   0.0932802), wk =   0.5000000
        k(    4) = (   0.1249437  -0.0721363   0.0932802), wk =   0.2500000
        k(    5) = (   0.3748310   0.6492263   0.0932802), wk =   0.2500000
        k(    6) = (   0.3748310  -0.2164088   0.0932802), wk =   0.2500000

                       cryst. coord.
        k(    1) = (   0.1250000   0.1250000   0.2500000), wk =   0.2500000
        k(    2) = (   0.1250000   0.3750000   0.2500000), wk =   0.5000000
        k(    3) = (   0.1250000  -0.3750000   0.2500000), wk =   0.5000000
        k(    4) = (   0.1250000  -0.1250000   0.2500000), wk =   0.2500000
        k(    5) = (   0.3750000   0.3750000   0.2500000), wk =   0.2500000
        k(    6) = (   0.3750000  -0.3750000   0.2500000), wk =   0.2500000

     Dense  grid:    14797 G-vectors     FFT dimensions: (  24,  24,  64)

     Smooth grid:     5209 G-vectors     FFT dimensions: (  18,  18,  48)

     Dynamical RAM for                 wfc:       0.01 MB

     Dynamical RAM for     wfc (w. buffer):       0.10 MB

     Dynamical RAM for           str. fact:       0.03 MB

     Dynamical RAM for           local pot:       0.01 MB

     Dynamical RAM for          nlocal pot:       0.04 MB

     Dynamical RAM for                qrad:       0.71 MB

     Dynamical RAM for          rho,v,vnew:       0.19 MB

     Dynamical RAM for               rhoin:       0.06 MB

     Dynamical RAM for            rho*nmix:       0.45 MB

     Dynamical RAM for           G-vectors:       0.11 MB

     Dynamical RAM for          h,s,v(r/c):       0.03 MB

     Dynamical RAM for          <psi|beta>:       0.01 MB

     Dynamical RAM for                 psi:       0.03 MB

     Dynamical RAM for                hpsi:       0.03 MB

     Dynamical RAM for                spsi:       0.03 MB

     Dynamical RAM for      wfcinit/wfcrot:       0.05 MB

     Dynamical RAM for           addusdens:       1.33 MB

     Dynamical RAM for          addusforce:       1.51 MB

     Dynamical RAM for         addusstress:       1.41 MB

     Estimated static dynamical RAM per process >       1.94 MB

     Estimated max dynamical RAM per process >       3.46 MB

     Estimated total dynamical RAM >      27.67 MB

     Initial potential from superposition of free atoms

     starting charge   15.99979, renormalised to   16.00000


     ----------------------------------------------------------------

     Non-local correlation energy =              0.042365473161358

     ----------------------------------------------------------------

     Starting wfcs are   16 randomized atomic wfcs

     total cpu time spent up to now is        5.1 secs

     Self-consistent Calculation

     iteration #  1     ecut=    30.00 Ry     beta= 0.30
     Davidson diagonalization with overlap
     c_bands:  1 eigenvalues not converged
     ethr =  1.00E-06,  avg # of iterations = 15.5


     ----------------------------------------------------------------

     Non-local correlation energy =              0.047922455370122

     ----------------------------------------------------------------


     total cpu time spent up to now is        5.2 secs

     total energy              =     -45.68867683 Ry
     estimated scf accuracy    <       0.40314412 Ry

     iteration #  2     ecut=    30.00 Ry     beta= 0.30
     Davidson diagonalization with overlap
     ethr =  2.52E-03,  avg # of iterations =  1.0


     ----------------------------------------------------------------

     Non-local correlation energy =              0.056708586224030

     ----------------------------------------------------------------


     total cpu time spent up to now is        5.3 secs

     total energy              =     -45.62391584 Ry
     estimated scf accuracy    <       0.13602845 Ry

     iteration #  3     ecut=    30.00 Ry     beta= 0.30
     Davidson diagonalization with overlap
     ethr =  8.50E-04,  avg # of iterations =  2.5


     ----------------------------------------------------------------

     Non-local correlation energy =              0.055391560473686

     ----------------------------------------------------------------


     total cpu time spent up to now is        5.3 secs

     total energy              =     -45.64533814 Ry
     estimated scf accuracy    <       0.00252929 Ry

     iteration #  4     ecut=    30.00 Ry     beta= 0.30
     Davidson diagonalization with overlap
     ethr =  1.58E-05,  avg # of iterations =  3.7


     ----------------------------------------------------------------

     Non-local correlation energy =              0.056059034540453

     ----------------------------------------------------------------


     total cpu time spent up to now is        5.4 secs

     total energy              =     -45.64542963 Ry
     estimated scf accuracy    <       0.00068522 Ry

     iteration #  5     ecut=    30.00 Ry     beta= 0.30
     Davidson diagonalization with overlap
     ethr =  4.28E-06,  avg # of iterations =  2.5


     ----------------------------------------------------------------

     Non-local correlation energy =              0.056126454068122

     ----------------------------------------------------------------


     total cpu time spent up to now is        5.5 secs

     total energy              =     -45.64552459 Ry
     estimated scf accuracy    <       0.00000284 Ry

     iteration #  6     ecut=    30.00 Ry     beta= 0.30
     Davidson diagonalization with overlap
     ethr =  1.77E-08,  avg # of iterations =  2.7


     ----------------------------------------------------------------

     Non-local correlation energy =              0.056126404769019

     ----------------------------------------------------------------


     total cpu time spent up to now is        5.5 secs

     total energy              =     -45.64552708 Ry
     estimated scf accuracy    <       0.00000079 Ry

     iteration #  7     ecut=    30.00 Ry     beta= 0.30
     Davidson diagonalization with overlap
     ethr =  4.94E-09,  avg # of iterations =  2.0


     ----------------------------------------------------------------

     Non-local correlation energy =              0.056135956437016

     ----------------------------------------------------------------


     total cpu time spent up to now is        5.6 secs

     total energy              =     -45.64552731 Ry
     estimated scf accuracy    <       0.00000006 Ry

     iteration #  8     ecut=    30.00 Ry     beta= 0.30
     Davidson diagonalization with overlap
     ethr =  3.91E-10,  avg # of iterations =  2.0


     ----------------------------------------------------------------

     Non-local correlation energy =              0.056134370368903

     ----------------------------------------------------------------


     total cpu time spent up to now is        5.6 secs

     total energy              =     -45.64552740 Ry
     estimated scf accuracy    <       0.00000003 Ry

     iteration #  9     ecut=    30.00 Ry     beta= 0.30
     Davidson diagonalization with overlap
     ethr =  1.77E-10,  avg # of iterations =  1.0


     ----------------------------------------------------------------

     Non-local correlation energy =              0.056132685873901

     ----------------------------------------------------------------


     total cpu time spent up to now is        5.7 secs

     total energy              =     -45.64552744 Ry
     estimated scf accuracy    <          8.9E-09 Ry

     iteration # 10     ecut=    30.00 Ry     beta= 0.30
     Davidson diagonalization with overlap
     ethr =  5.56E-11,  avg # of iterations =  2.0


     ----------------------------------------------------------------

     Non-local correlation energy =              0.056132500211715

     ----------------------------------------------------------------


     total cpu time spent up to now is        5.7 secs

     total energy              =     -45.64552746 Ry
     estimated scf accuracy    <          6.5E-11 Ry

     iteration # 11     ecut=    30.00 Ry     beta= 0.30
     Davidson diagonalization with overlap
     ethr =  4.04E-13,  avg # of iterations =  2.3


     ----------------------------------------------------------------

     Non-local correlation energy =              0.056132319876942

     ----------------------------------------------------------------


     total cpu time spent up to now is        5.8 secs

     End of self-consistent calculation

          k = 0.1249 0.2164 0.0933 (   646 PWs)   bands (ev):

   -11.3102 -11.0808   0.1437   0.8825   0.9186   1.6129   1.9715   1.9970
    13.2695  15.1222  15.4367  16.3187

     occupation numbers 
     1.0000   1.0000   1.0000   1.0000   1.0000   1.0000   1.0000   1.0000
     0.0000   0.0000   0.0000   0.0000

          k = 0.1249 0.5050 0.0933 (   659 PWs)   bands (ev):

    -7.7990  -7.6272  -4.8873  -4.7576  -0.3069  -0.2407   4.1022   5.0552
     9.0639   9.7041  15.9590  16.3122

     occupation numbers 
     1.0000   1.0000   1.0000   1.0000   1.0000   1.0000   1.0000   1.0000
     0.0000   0.0000   0.0000   0.0000

          k = 0.1249-0.3607 0.0933 (   655 PWs)   bands (ev):

    -9.8660  -9.6580  -1.9019  -1.8119   0.4594   0.5146   1.8541   3.1971
    12.0349  12.5702  14.9764  16.3299

     occupation numbers 
     1.0000   1.0000   1.0000   1.0000   1.0000   1.0000   1.0000   1.0000
     0.0000   0.0000   0.0000   0.0000

          k = 0.1249-0.0721 0.0933 (   638 PWs)   bands (ev):

   -12.0440 -11.8037  -0.7413   0.7779   2.6664   2.7058   3.3433   3.3722
    12.3991  15.5158  15.6326  16.9546

     occupation numbers 
     1.0000   1.0000   1.0000   1.0000   1.0000   1.0000   1.0000   1.0000
     0.0000   0.0000   0.0000   0.0000

          k = 0.3748 0.6492 0.0933 (   657 PWs)   bands (ev):

    -6.2023  -6.1183  -5.2752  -5.2399  -2.5808  -2.4988   5.7951   6.3242
     8.0852   8.2037  17.6603  17.8118

     occupation numbers 
     1.0000   1.0000   1.0000   1.0000   1.0000   1.0000   1.0027   0.9973
     0.0000   0.0000   0.0000   0.0000

          k = 0.3748-0.2164 0.0933 (   657 PWs)   bands (ev):

    -9.1578  -8.9607  -3.5892  -3.4668   1.0543   1.0988   2.6414   3.8753
    10.5238  11.3090  14.6321  14.9075

     occupation numbers 
     1.0000   1.0000   1.0000   1.0000   1.0000   1.0000   1.0000   1.0000
     0.0000   0.0000   0.0000   0.0000

     the Fermi energy is     6.5729 ev

!    total energy              =     -45.64552748 Ry
     estimated scf accuracy    <          3.6E-12 Ry
     smearing contrib. (-TS)   =       0.00043720 Ry
     internal energy E=F+TS    =     -45.64596467 Ry

     The total energy is F=E-TS. E is the sum of the following terms:
     one-electron contribution =      -9.95192468 Ry
     hartree contribution      =      12.97410714 Ry
     xc contribution           =     -14.12268028 Ry
     ewald contribution        =     -34.54546686 Ry

     convergence has been achieved in  11 iterations

     Forces acting on atoms (cartesian axes, Ry/au):

     atom    1 type  1   force =    -0.00000000   -0.00000000   -0.00000000
     atom    2 type  1   force =     0.00000000    0.00000000    0.00000000
     atom    3 type  1   force =    -0.00000000   -0.00000000   -0.00000000
     atom    4 type  1   force =    -0.00000000   -0.00000000   -0.00000000
     The non-local contrib.  to forces
     atom    1 type  1   force =    -0.00000000    0.00000000   -0.00000000
     atom    2 type  1   force =    -0.00000000   -0.00000000   -0.00000000
     atom    3 type  1   force =    -0.00000000   -0.00000000    0.00000000
     atom    4 type  1   force =    -0.00000000   -0.00000000   -0.00000000
     The ionic contribution  to forces
     atom    1 type  1   force =     0.00000851   -0.00000492    0.00000000
     atom    2 type  1   force =    -0.00000854    0.00000493    0.00000000
     atom    3 type  1   force =    -0.00000851    0.00000492   -0.00000000
     atom    4 type  1   force =     0.00000854   -0.00000493   -0.00000000
     The local contribution  to forces
     atom    1 type  1   force =    -0.00000000    0.00000000    0.00000000
     atom    2 type  1   force =    -0.00000812    0.00000469    0.00000000
     atom    3 type  1   force =     0.00000000   -0.00000000    0.00000000
     atom    4 type  1   force =     0.00000812   -0.00000469    0.00000000
     The core correction contribution to forces
     atom    1 type  1   force =     0.00000000    0.00000000    0.00000000
     atom    2 type  1   force =     0.00000000    0.00000000    0.00000000
     atom    3 type  1   force =     0.00000000    0.00000000    0.00000000
     atom    4 type  1   force =     0.00000000    0.00000000    0.00000000
     The Hubbard contrib.    to forces
     atom    1 type  1   force =     0.00000000    0.00000000    0.00000000
     atom    2 type  1   force =     0.00000000    0.00000000    0.00000000
     atom    3 type  1   force =     0.00000000    0.00000000    0.00000000
     atom    4 type  1   force =     0.00000000    0.00000000    0.00000000
     The SCF correction term to forces
     atom    1 type  1   force =     0.00000000   -0.00000000    0.00000000
     atom    2 type  1   force =     0.00000000   -0.00000000    0.00000000
     atom    3 type  1   force =    -0.00000000    0.00000000    0.00000000
     atom    4 type  1   force =    -0.00000000    0.00000000    0.00000000

     Total force =     0.000000     Total SCF correction =     0.000000


     Computing stress (Cartesian axis) and pressure

          total   stress  (Ry/bohr**3)                   (kbar)     P=        1.15
   0.00000285  -0.00000000  -0.00000000            0.42       -0.00       -0.00
  -0.00000000   0.00000285   0.00000000           -0.00        0.42        0.00
  -0.00000000  -0.00000000   0.00001782           -0.00       -0.00        2.62

     kinetic stress (kbar)  10704.18     -0.00     -0.00
                               -0.00  10704.18     -0.00
                               -0.00     -0.00  12384.36

     local   stress (kbar) -17716.25      0.01      0.00
                                0.01 -17716.24      0.00
                                0.00      0.00  24776.51

     nonloc. stress (kbar)   -452.95      0.00      0.00
                                0.00   -452.95     -0.00
                               -0.00     -0.00   -457.21

     hartree stress (kbar)   7066.82      0.00      0.00
                                0.00   7066.82     -0.00
                                0.00     -0.00  -6015.51

     exc-cor stress (kbar)  -2717.80      0.00     -0.00
                                0.00  -2717.80     -0.00
                               -0.00     -0.00  -2872.58

     corecor stress (kbar)      0.00      0.00      0.00
                                0.00      0.00      0.00
                                0.00      0.00      0.00

     ewald   stress (kbar)   3111.77     -0.02      0.00
                               -0.02   3111.74     -0.00
                                0.00     -0.00 -27839.26

     hubbard stress (kbar)      0.00      0.00      0.00
                                0.00      0.00      0.00
                                0.00      0.00      0.00

     DFT-D   stress (kbar)      0.00      0.00      0.00
                                0.00      0.00      0.00
                                0.00      0.00      0.00

     XDM     stress (kbar)      0.00      0.00      0.00
                                0.00      0.00      0.00
                                0.00      0.00      0.00

     dft-nl  stress (kbar)      4.65     -0.00      0.00
                               -0.00      4.65      0.00
                                0.00      0.00     26.31

     TS-vdW  stress (kbar)      0.00      0.00      0.00
                                0.00      0.00      0.00
                                0.00      0.00      0.00



     Writing output data file ./tmp/graphite.save/
 
     init_run     :      1.27s CPU      1.28s WALL (       2 calls)
     electrons    :      3.30s CPU      3.80s WALL (       7 calls)
     update_pot   :      0.18s CPU      0.21s WALL (       5 calls)
     forces       :      0.06s CPU      0.07s WALL (       7 calls)
     stress       :      0.38s CPU      0.39s WALL (       7 calls)

     Called by init_run:
     wfcinit      :      0.02s CPU      0.03s WALL (       2 calls)
     wfcinit:atom :      0.00s CPU      0.00s WALL (      12 calls)
     wfcinit:wfcr :      0.02s CPU      0.03s WALL (      12 calls)
     potinit      :      1.19s CPU      1.20s WALL (       2 calls)
     hinit0       :      0.04s CPU      0.04s WALL (       2 calls)

     Called by electrons:
     c_bands      :      1.55s CPU      1.83s WALL (      71 calls)
     sum_band     :      0.35s CPU      0.40s WALL (      71 calls)
     v_of_rho     :      2.55s CPU      2.70s WALL (      78 calls)
     v_h          :      0.01s CPU      0.01s WALL (      78 calls)
     v_xc         :      2.54s CPU      2.69s WALL (      78 calls)
     newd         :      0.08s CPU      0.11s WALL (      78 calls)
     mix_rho      :      0.03s CPU      0.03s WALL (      71 calls)

     Called by c_bands:
     init_us_2    :      0.02s CPU      0.02s WALL (     948 calls)
     cegterg      :      1.50s CPU      1.77s WALL (     426 calls)

     Called by sum_band:
     sum_band:wei :      0.00s CPU      0.00s WALL (      71 calls)
     sum_band:loo :      0.25s CPU      0.28s WALL (      71 calls)
     sum_band:buf :      0.00s CPU      0.00s WALL (     426 calls)
     sum_band:ini :      0.01s CPU      0.01s WALL (     426 calls)
     sum_band:cal :      0.02s CPU      0.02s WALL (     426 calls)
     sum_band:bec :      0.00s CPU      0.00s WALL (     426 calls)
     addusdens    :      0.06s CPU      0.07s WALL (      71 calls)
     addusd:skk   :      0.00s CPU      0.00s WALL (      71 calls)
     addusd:dgemm :      0.02s CPU      0.02s WALL (      71 calls)
     addusd:qvan2 :      0.03s CPU      0.03s WALL (      71 calls)

     Called by *egterg:
     cdiaghg      :      0.19s CPU      0.22s WALL (    1448 calls)
     cegterg:over :      0.04s CPU      0.05s WALL (    1052 calls)
     cegterg:upda :      0.01s CPU      0.01s WALL (    1052 calls)
     cegterg:last :      0.01s CPU      0.01s WALL (     852 calls)
     h_psi        :      1.19s CPU      1.42s WALL (    1490 calls)
     s_psi        :      0.01s CPU      0.02s WALL (    1490 calls)
     g_psi        :      0.00s CPU      0.01s WALL (    1052 calls)

     Called by h_psi:
     h_psi:calbec :      0.04s CPU      0.05s WALL (    1490 calls)
     vloc_psi     :      1.12s CPU      1.34s WALL (    1490 calls)
     add_vuspsi   :      0.02s CPU      0.02s WALL (    1490 calls)

     General routines
     calbec       :      0.06s CPU      0.08s WALL (    2126 calls)
     fft          :      0.60s CPU      0.68s WALL (    5269 calls)
     ffts         :      0.01s CPU      0.01s WALL (     149 calls)
     fftw         :      1.27s CPU      1.50s WALL (   32510 calls)
     interpolate  :      0.01s CPU      0.01s WALL (      78 calls)
 
     Parallel routines
     fft_scatt_xy :      0.12s CPU      0.14s WALL (   37928 calls)
     fft_scatt_yz :      0.94s CPU      1.11s WALL (   37928 calls)
 
     PWSCF        :      5.26s CPU      5.84s WALL

 
   This run was terminated on:  17:45:56  16Apr2021            

=------------------------------------------------------------------------------=
   JOB DONE.
=------------------------------------------------------------------------------=
