
     Program PWSCF v.6.7MaX starts on 16Apr2021 at 17:52: 0 

     This program is part of the open-source Quantum ESPRESSO suite
     for quantum simulation of materials; please cite
         "P. Giannozzi et al., J. Phys.:Condens. Matter 21 395502 (2009);
         "P. Giannozzi et al., J. Phys.:Condens. Matter 29 465901 (2017);
          URL http://www.quantum-espresso.org", 
     in publications or presentations arising from this work. More details at
     http://www.quantum-espresso.org/quote

     Parallel version (MPI), running on     8 processors

     MPI processes distributed on     1 nodes
     R & G space division:  proc/nbgrp/npool/nimage =       8
     Waiting for input...
     Reading input from standard input

     Current dimensions of program PWSCF are:
     Max number of different atomic species (ntypx) = 10
     Max number of k-points (npk) =  40000
     Max angular momentum in pseudopotentials (lmaxx) =  3
     file C.pbe-rrkjus.UPF: wavefunction(s)  2S 2P renormalized

     Subspace diagonalization in iterative solution of the eigenvalue problem:
     a serial algorithm will be used

 
     Parallelization info
     --------------------
     sticks:   dense  smooth     PW     G-vecs:    dense   smooth      PW
     Min          45      22      7                 1787      630     127
     Max          46      24      8                 1796      634     134
     Sum         361     187     61                14339     5053    1045
 


     bravais-lattice index     =            4
     lattice parameter (alat)  =       4.6601  a.u.
     unit-cell volume          =     227.8448 (a.u.)^3
     number of atoms/cell      =            4
     number of atomic types    =            1
     number of electrons       =        16.00
     number of Kohn-Sham states=           12
     kinetic-energy cutoff     =      30.0000  Ry
     charge density cutoff     =     240.0000  Ry
     scf convergence threshold =      1.0E-09
     mixing beta               =       0.3000
     number of iterations used =            8  plain     mixing
     energy convergence thresh.=      1.0E-05
     force convergence thresh. =      1.0E-04
     press convergence thresh. =      5.0E-01
     Exchange-correlation=  SLA  PW   PBE  PBE
                           (   1   4   3   4   0   0   0)
     nstep                     =           50


     celldm(1)=   4.660065  celldm(2)=   0.000000  celldm(3)=   2.599757
     celldm(4)=   0.000000  celldm(5)=   0.000000  celldm(6)=   0.000000

     crystal axes: (cart. coord. in units of alat)
               a(1) = (   1.000000   0.000000   0.000000 )  
               a(2) = (  -0.500000   0.866025   0.000000 )  
               a(3) = (   0.000000   0.000000   2.599757 )  

     reciprocal axes: (cart. coord. in units 2 pi/alat)
               b(1) = (  1.000000  0.577350  0.000000 )  
               b(2) = (  0.000000  1.154701  0.000000 )  
               b(3) = (  0.000000  0.000000  0.384651 )  


     PseudoPot. # 1 for C  read from file:
     ../../pseudo/C.pbe-rrkjus.UPF
     MD5 check sum: 00fb224312de0c5b6853bd333518df6f
     Pseudo is Ultrasoft, Zval =  4.0
     Generated by new atomic code, or converted to UPF format
     Using radial grid of  627 points,  4 beta functions with: 
                l(1) =   0
                l(2) =   0
                l(3) =   1
                l(4) =   1
     Q(r) pseudized with 0 coefficients 


     atomic species   valence    mass     pseudopotential
        C              4.00    12.01100     C ( 1.00)

     24 Sym. Ops., with inversion, found (12 have fractional translation)


                                    s                        frac. trans.

      isym =  1     identity                                     

 cryst.   s( 1) = (     1          0          0      )
                  (     0          1          0      )
                  (     0          0          1      )

 cart.    s( 1) = (  1.0000000  0.0000000  0.0000000 )
                  (  0.0000000  1.0000000  0.0000000 )
                  (  0.0000000  0.0000000  1.0000000 )


      isym =  2     180 deg rotation - cart. axis [0,0,1]        

 cryst.   s( 2) = (    -1          0          0      )    f =(  0.0000000 )
                  (     0         -1          0      )       (  0.0000000 )
                  (     0          0          1      )       (  0.5000000 )

 cart.    s( 2) = ( -1.0000000  0.0000000  0.0000000 )    f =(  0.0000000 )
                  (  0.0000000 -1.0000000  0.0000000 )       (  0.0000000 )
                  (  0.0000000  0.0000000  1.0000000 )       (  1.2998783 )


      isym =  3     180 deg rotation - cart. axis [0,1,0]        

 cryst.   s( 3) = (    -1          0          0      )    f =(  0.0000000 )
                  (     1          1          0      )       (  0.0000000 )
                  (     0          0         -1      )       (  0.5000000 )

 cart.    s( 3) = ( -1.0000000  0.0000000  0.0000000 )    f =(  0.0000000 )
                  (  0.0000000  1.0000000  0.0000000 )       (  0.0000000 )
                  (  0.0000000  0.0000000 -1.0000000 )       (  1.2998783 )


      isym =  4     180 deg rotation - cart. axis [1,0,0]        

 cryst.   s( 4) = (     1          0          0      )
                  (    -1         -1          0      )
                  (     0          0         -1      )

 cart.    s( 4) = (  1.0000000  0.0000000  0.0000000 )
                  (  0.0000000 -1.0000000  0.0000000 )
                  (  0.0000000  0.0000000 -1.0000000 )


      isym =  5      60 deg rotation - cryst. axis [0,0,1]       

 cryst.   s( 5) = (     1          1          0      )    f =(  0.0000000 )
                  (    -1          0          0      )       (  0.0000000 )
                  (     0          0          1      )       (  0.5000000 )

 cart.    s( 5) = (  0.5000000 -0.8660254  0.0000000 )    f =(  0.0000000 )
                  (  0.8660254  0.5000000  0.0000000 )       (  0.0000000 )
                  (  0.0000000  0.0000000  1.0000000 )       (  1.2998783 )


      isym =  6      60 deg rotation - cryst. axis [0,0,-1]      

 cryst.   s( 6) = (     0         -1          0      )    f =(  0.0000000 )
                  (     1          1          0      )       (  0.0000000 )
                  (     0          0          1      )       (  0.5000000 )

 cart.    s( 6) = (  0.5000000  0.8660254  0.0000000 )    f =(  0.0000000 )
                  ( -0.8660254  0.5000000  0.0000000 )       (  0.0000000 )
                  (  0.0000000  0.0000000  1.0000000 )       (  1.2998783 )


      isym =  7     120 deg rotation - cryst. axis [0,0,1]       

 cryst.   s( 7) = (     0          1          0      )
                  (    -1         -1          0      )
                  (     0          0          1      )

 cart.    s( 7) = ( -0.5000000 -0.8660254  0.0000000 )
                  (  0.8660254 -0.5000000  0.0000000 )
                  (  0.0000000  0.0000000  1.0000000 )


      isym =  8     120 deg rotation - cryst. axis [0,0,-1]      

 cryst.   s( 8) = (    -1         -1          0      )
                  (     1          0          0      )
                  (     0          0          1      )

 cart.    s( 8) = ( -0.5000000  0.8660254  0.0000000 )
                  ( -0.8660254 -0.5000000  0.0000000 )
                  (  0.0000000  0.0000000  1.0000000 )


      isym =  9     180 deg rotation - cryst. axis [1,-1,0]      

 cryst.   s( 9) = (     0         -1          0      )    f =(  0.0000000 )
                  (    -1          0          0      )       (  0.0000000 )
                  (     0          0         -1      )       (  0.5000000 )

 cart.    s( 9) = (  0.5000000 -0.8660254  0.0000000 )    f =(  0.0000000 )
                  ( -0.8660254 -0.5000000  0.0000000 )       (  0.0000000 )
                  (  0.0000000  0.0000000 -1.0000000 )       (  1.2998783 )


      isym = 10     180 deg rotation - cryst. axis [2,1,0]       

 cryst.   s(10) = (     1          1          0      )    f =(  0.0000000 )
                  (     0         -1          0      )       (  0.0000000 )
                  (     0          0         -1      )       (  0.5000000 )

 cart.    s(10) = (  0.5000000  0.8660254  0.0000000 )    f =(  0.0000000 )
                  (  0.8660254 -0.5000000  0.0000000 )       (  0.0000000 )
                  (  0.0000000  0.0000000 -1.0000000 )       (  1.2998783 )


      isym = 11     180 deg rotation - cryst. axis [0,1,0]       

 cryst.   s(11) = (    -1         -1          0      )
                  (     0          1          0      )
                  (     0          0         -1      )

 cart.    s(11) = ( -0.5000000 -0.8660254  0.0000000 )
                  ( -0.8660254  0.5000000  0.0000000 )
                  (  0.0000000  0.0000000 -1.0000000 )


      isym = 12     180 deg rotation - cryst. axis [1,1,0]       

 cryst.   s(12) = (     0          1          0      )
                  (     1          0          0      )
                  (     0          0         -1      )

 cart.    s(12) = ( -0.5000000  0.8660254  0.0000000 )
                  (  0.8660254  0.5000000  0.0000000 )
                  (  0.0000000  0.0000000 -1.0000000 )


      isym = 13     inversion                                    

 cryst.   s(13) = (    -1          0          0      )
                  (     0         -1          0      )
                  (     0          0         -1      )

 cart.    s(13) = ( -1.0000000  0.0000000  0.0000000 )
                  (  0.0000000 -1.0000000  0.0000000 )
                  (  0.0000000  0.0000000 -1.0000000 )


      isym = 14     inv. 180 deg rotation - cart. axis [0,0,1]   

 cryst.   s(14) = (     1          0          0      )    f =(  0.0000000 )
                  (     0          1          0      )       (  0.0000000 )
                  (     0          0         -1      )       (  0.5000000 )

 cart.    s(14) = (  1.0000000  0.0000000  0.0000000 )    f =(  0.0000000 )
                  (  0.0000000  1.0000000  0.0000000 )       (  0.0000000 )
                  (  0.0000000  0.0000000 -1.0000000 )       (  1.2998783 )


      isym = 15     inv. 180 deg rotation - cart. axis [0,1,0]   

 cryst.   s(15) = (     1          0          0      )    f =(  0.0000000 )
                  (    -1         -1          0      )       (  0.0000000 )
                  (     0          0          1      )       (  0.5000000 )

 cart.    s(15) = (  1.0000000  0.0000000  0.0000000 )    f =(  0.0000000 )
                  (  0.0000000 -1.0000000  0.0000000 )       (  0.0000000 )
                  (  0.0000000  0.0000000  1.0000000 )       (  1.2998783 )


      isym = 16     inv. 180 deg rotation - cart. axis [1,0,0]   

 cryst.   s(16) = (    -1          0          0      )
                  (     1          1          0      )
                  (     0          0          1      )

 cart.    s(16) = ( -1.0000000  0.0000000  0.0000000 )
                  (  0.0000000  1.0000000  0.0000000 )
                  (  0.0000000  0.0000000  1.0000000 )


      isym = 17     inv.  60 deg rotation - cryst. axis [0,0,1]  

 cryst.   s(17) = (    -1         -1          0      )    f =(  0.0000000 )
                  (     1          0          0      )       (  0.0000000 )
                  (     0          0         -1      )       (  0.5000000 )

 cart.    s(17) = ( -0.5000000  0.8660254  0.0000000 )    f =(  0.0000000 )
                  ( -0.8660254 -0.5000000  0.0000000 )       (  0.0000000 )
                  (  0.0000000  0.0000000 -1.0000000 )       (  1.2998783 )


      isym = 18     inv.  60 deg rotation - cryst. axis [0,0,-1] 

 cryst.   s(18) = (     0          1          0      )    f =(  0.0000000 )
                  (    -1         -1          0      )       (  0.0000000 )
                  (     0          0         -1      )       (  0.5000000 )

 cart.    s(18) = ( -0.5000000 -0.8660254  0.0000000 )    f =(  0.0000000 )
                  (  0.8660254 -0.5000000  0.0000000 )       (  0.0000000 )
                  (  0.0000000  0.0000000 -1.0000000 )       (  1.2998783 )


      isym = 19     inv. 120 deg rotation - cryst. axis [0,0,1]  

 cryst.   s(19) = (     0         -1          0      )
                  (     1          1          0      )
                  (     0          0         -1      )

 cart.    s(19) = (  0.5000000  0.8660254  0.0000000 )
                  ( -0.8660254  0.5000000  0.0000000 )
                  (  0.0000000  0.0000000 -1.0000000 )


      isym = 20     inv. 120 deg rotation - cryst. axis [0,0,-1] 

 cryst.   s(20) = (     1          1          0      )
                  (    -1          0          0      )
                  (     0          0         -1      )

 cart.    s(20) = (  0.5000000 -0.8660254  0.0000000 )
                  (  0.8660254  0.5000000  0.0000000 )
                  (  0.0000000  0.0000000 -1.0000000 )


      isym = 21     inv. 180 deg rotation - cryst. axis [1,-1,0] 

 cryst.   s(21) = (     0          1          0      )    f =(  0.0000000 )
                  (     1          0          0      )       (  0.0000000 )
                  (     0          0          1      )       (  0.5000000 )

 cart.    s(21) = ( -0.5000000  0.8660254  0.0000000 )    f =(  0.0000000 )
                  (  0.8660254  0.5000000  0.0000000 )       (  0.0000000 )
                  (  0.0000000  0.0000000  1.0000000 )       (  1.2998783 )


      isym = 22     inv. 180 deg rotation - cryst. axis [2,1,0]  

 cryst.   s(22) = (    -1         -1          0      )    f =(  0.0000000 )
                  (     0          1          0      )       (  0.0000000 )
                  (     0          0          1      )       (  0.5000000 )

 cart.    s(22) = ( -0.5000000 -0.8660254  0.0000000 )    f =(  0.0000000 )
                  ( -0.8660254  0.5000000  0.0000000 )       (  0.0000000 )
                  (  0.0000000  0.0000000  1.0000000 )       (  1.2998783 )


      isym = 23     inv. 180 deg rotation - cryst. axis [0,1,0]  

 cryst.   s(23) = (     1          1          0      )
                  (     0         -1          0      )
                  (     0          0          1      )

 cart.    s(23) = (  0.5000000  0.8660254  0.0000000 )
                  (  0.8660254 -0.5000000  0.0000000 )
                  (  0.0000000  0.0000000  1.0000000 )


      isym = 24     inv. 180 deg rotation - cryst. axis [1,1,0]  

 cryst.   s(24) = (     0         -1          0      )
                  (    -1          0          0      )
                  (     0          0          1      )

 cart.    s(24) = (  0.5000000 -0.8660254  0.0000000 )
                  ( -0.8660254 -0.5000000  0.0000000 )
                  (  0.0000000  0.0000000  1.0000000 )


     point group D_6h(6/mmm)
     there are 12 classes
     the character table:

       E     2C6   2C3   C2    3C2'  3C2'' i     2S3   2S6   s_h   3s_d  3s_v 
A_1g   1.00  1.00  1.00  1.00  1.00  1.00  1.00  1.00  1.00  1.00  1.00  1.00
A_2g   1.00  1.00  1.00  1.00 -1.00 -1.00  1.00  1.00  1.00  1.00 -1.00 -1.00
B_1g   1.00 -1.00  1.00 -1.00  1.00 -1.00  1.00 -1.00  1.00 -1.00  1.00 -1.00
B_2g   1.00 -1.00  1.00 -1.00 -1.00  1.00  1.00 -1.00  1.00 -1.00 -1.00  1.00
E_1g   2.00  1.00 -1.00 -2.00  0.00  0.00  2.00  1.00 -1.00 -2.00  0.00  0.00
E_2g   2.00 -1.00 -1.00  2.00  0.00  0.00  2.00 -1.00 -1.00  2.00  0.00  0.00
A_1u   1.00  1.00  1.00  1.00  1.00  1.00 -1.00 -1.00 -1.00 -1.00 -1.00 -1.00
A_2u   1.00  1.00  1.00  1.00 -1.00 -1.00 -1.00 -1.00 -1.00 -1.00  1.00  1.00
B_1u   1.00 -1.00  1.00 -1.00  1.00 -1.00 -1.00  1.00 -1.00  1.00 -1.00  1.00
B_2u   1.00 -1.00  1.00 -1.00 -1.00  1.00 -1.00  1.00 -1.00  1.00  1.00 -1.00
E_1u   2.00  1.00 -1.00 -2.00  0.00  0.00 -2.00 -1.00  1.00  2.00  0.00  0.00
E_2u   2.00 -1.00 -1.00  2.00  0.00  0.00 -2.00  1.00  1.00 -2.00  0.00  0.00

     the symmetry operations in each class and the name of the first element:

     E        1
          identity                                               
     2C6      5    6
           60 deg rotation - cryst. axis [0,0,1]                 
     2C3      7    8
          120 deg rotation - cryst. axis [0,0,1]                 
     C2       2
          180 deg rotation - cart. axis [0,0,1]                  
     3C2'     4   12   11
          180 deg rotation - cart. axis [1,0,0]                  
     3C2''    3    9   10
          180 deg rotation - cart. axis [0,1,0]                  
     i       13
          inversion                                              
     2S3     17   18
          inv.  60 deg rotation - cryst. axis [0,0,1]            
     2S6     19   20
          inv. 120 deg rotation - cryst. axis [0,0,1]            
     s_h     14
          inv. 180 deg rotation - cart. axis [0,0,1]             
     3s_d    16   24   23
          inv. 180 deg rotation - cart. axis [1,0,0]             
     3s_v    15   21   22
          inv. 180 deg rotation - cart. axis [0,1,0]             

   Cartesian axes

     site n.     atom                  positions (alat units)
         1           C   tau(   1) = (  -0.5000000   0.8660254   1.9498175  )
         2           C   tau(   2) = (   0.5000005   0.2886748   1.9498175  )
         3           C   tau(   3) = (  -0.5000000   0.8660254   0.6499392  )
         4           C   tau(   4) = (  -0.0000005   0.5773506   0.6499392  )

   Crystallographic axes

     site n.     atom                  positions (cryst. coord.)
         1           C   tau(   1) = (  0.0000000  1.0000000  0.7500000  )
         2           C   tau(   2) = (  0.6666670  0.3333330  0.7500000  )
         3           C   tau(   3) = (  0.0000000  1.0000000  0.2500000  )
         4           C   tau(   4) = (  0.3333330  0.6666670  0.2500000  )

     number of k points=     6  Marzari-Vanderbilt smearing, width (Ry)=  0.0200
                       cart. coord. in units 2pi/alat
        k(    1) = (   0.1250000   0.2165064   0.0961628), wk =   0.2500000
        k(    2) = (   0.1250000   0.5051815   0.0961628), wk =   0.5000000
        k(    3) = (   0.1250000  -0.3608439   0.0961628), wk =   0.5000000
        k(    4) = (   0.1250000  -0.0721688   0.0961628), wk =   0.2500000
        k(    5) = (   0.3750000   0.6495191   0.0961628), wk =   0.2500000
        k(    6) = (   0.3750000  -0.2165064   0.0961628), wk =   0.2500000

                       cryst. coord.
        k(    1) = (   0.1250000   0.1250000   0.2500000), wk =   0.2500000
        k(    2) = (   0.1250000   0.3750000   0.2500000), wk =   0.5000000
        k(    3) = (   0.1250000  -0.3750000   0.2500000), wk =   0.5000000
        k(    4) = (   0.1250000  -0.1250000   0.2500000), wk =   0.2500000
        k(    5) = (   0.3750000   0.3750000   0.2500000), wk =   0.2500000
        k(    6) = (   0.3750000  -0.3750000   0.2500000), wk =   0.2500000

     Dense  grid:    14339 G-vectors     FFT dimensions: (  24,  24,  60)

     Smooth grid:     5053 G-vectors     FFT dimensions: (  18,  18,  48)

     Dynamical RAM for                 wfc:       0.01 MB

     Dynamical RAM for     wfc (w. buffer):       0.10 MB

     Dynamical RAM for           str. fact:       0.03 MB

     Dynamical RAM for           local pot:       0.00 MB

     Dynamical RAM for          nlocal pot:       0.04 MB

     Dynamical RAM for                qrad:       0.71 MB

     Dynamical RAM for          rho,v,vnew:       0.19 MB

     Dynamical RAM for               rhoin:       0.06 MB

     Dynamical RAM for            rho*nmix:       0.44 MB

     Dynamical RAM for           G-vectors:       0.11 MB

     Dynamical RAM for          h,s,v(r/c):       0.03 MB

     Dynamical RAM for          <psi|beta>:       0.01 MB

     Dynamical RAM for                 psi:       0.03 MB

     Dynamical RAM for                hpsi:       0.03 MB

     Dynamical RAM for                spsi:       0.03 MB

     Dynamical RAM for      wfcinit/wfcrot:       0.04 MB

     Dynamical RAM for           addusdens:       1.29 MB

     Dynamical RAM for          addusforce:       1.47 MB

     Dynamical RAM for         addusstress:       1.37 MB

     Estimated static dynamical RAM per process >       1.90 MB

     Estimated max dynamical RAM per process >       3.37 MB

     Estimated total dynamical RAM >      26.97 MB

     Initial potential from superposition of free atoms

     starting charge   15.99979, renormalised to   16.00000
     Starting wfcs are   16 randomized atomic wfcs

     total cpu time spent up to now is        0.1 secs

     Self-consistent Calculation

     iteration #  1     ecut=    30.00 Ry     beta= 0.30
     Davidson diagonalization with overlap
     ethr =  1.00E-02,  avg # of iterations =  2.8

     total cpu time spent up to now is        0.1 secs

     total energy              =     -45.61835255 Ry
     estimated scf accuracy    <       0.36365302 Ry

     iteration #  2     ecut=    30.00 Ry     beta= 0.30
     Davidson diagonalization with overlap
     ethr =  2.27E-03,  avg # of iterations =  1.0

     total cpu time spent up to now is        0.2 secs

     total energy              =     -45.55139577 Ry
     estimated scf accuracy    <       0.13261473 Ry

     iteration #  3     ecut=    30.00 Ry     beta= 0.30
     Davidson diagonalization with overlap
     ethr =  8.29E-04,  avg # of iterations =  3.8

     total cpu time spent up to now is        0.2 secs

     total energy              =     -45.57222621 Ry
     estimated scf accuracy    <       0.00242736 Ry

     iteration #  4     ecut=    30.00 Ry     beta= 0.30
     Davidson diagonalization with overlap
     ethr =  1.52E-05,  avg # of iterations =  4.5

     total cpu time spent up to now is        0.3 secs

     total energy              =     -45.57170952 Ry
     estimated scf accuracy    <       0.00287405 Ry

     iteration #  5     ecut=    30.00 Ry     beta= 0.30
     Davidson diagonalization with overlap
     ethr =  1.52E-05,  avg # of iterations =  2.0

     total cpu time spent up to now is        0.3 secs

     total energy              =     -45.57212275 Ry
     estimated scf accuracy    <       0.00000346 Ry

     iteration #  6     ecut=    30.00 Ry     beta= 0.30
     Davidson diagonalization with overlap
     ethr =  2.16E-08,  avg # of iterations =  4.3

     total cpu time spent up to now is        0.3 secs

     total energy              =     -45.57212462 Ry
     estimated scf accuracy    <       0.00000274 Ry

     iteration #  7     ecut=    30.00 Ry     beta= 0.30
     Davidson diagonalization with overlap
     ethr =  1.71E-08,  avg # of iterations =  2.0

     total cpu time spent up to now is        0.4 secs

     total energy              =     -45.57212522 Ry
     estimated scf accuracy    <       0.00000017 Ry

     iteration #  8     ecut=    30.00 Ry     beta= 0.30
     Davidson diagonalization with overlap
     ethr =  1.07E-09,  avg # of iterations =  2.0

     total cpu time spent up to now is        0.4 secs

     total energy              =     -45.57212533 Ry
     estimated scf accuracy    <       0.00000002 Ry

     iteration #  9     ecut=    30.00 Ry     beta= 0.30
     Davidson diagonalization with overlap
     ethr =  1.35E-10,  avg # of iterations =  2.0

     total cpu time spent up to now is        0.4 secs

     total energy              =     -45.57212537 Ry
     estimated scf accuracy    <          1.3E-09 Ry

     iteration # 10     ecut=    30.00 Ry     beta= 0.30
     Davidson diagonalization with overlap
     ethr =  8.02E-12,  avg # of iterations =  2.0

     total cpu time spent up to now is        0.5 secs

     End of self-consistent calculation

          k = 0.1250 0.2165 0.0962 (   626 PWs)   bands (ev):

   -11.0014 -10.7214   0.4350   1.2761   1.3231   2.0728   2.3541   2.3872
    14.3562  15.4829  15.8579  16.6429

     occupation numbers 
     1.0000   1.0000   1.0000   1.0000   1.0000   1.0000   1.0000   1.0000
     0.0000   0.0000   0.0000   0.0000

          k = 0.1250 0.5052 0.0962 (   635 PWs)   bands (ev):

    -7.4637  -7.2506  -4.5503  -4.3875   0.0511   0.1365   4.4041   5.4742
     9.4208  10.1295  16.2659  16.6790

     occupation numbers 
     1.0000   1.0000   1.0000   1.0000   1.0000   1.0000   1.0000   1.0000
     0.0000   0.0000   0.0000   0.0000

          k = 0.1250-0.3608 0.0962 (   638 PWs)   bands (ev):

    -9.5484  -9.2933  -1.5354  -1.4209   0.8225   0.8942   2.1481   3.6490
    12.3795  12.9928  15.9849  16.6502

     occupation numbers 
     1.0000   1.0000   1.0000   1.0000   1.0000   1.0000   1.0000   1.0000
     0.0000   0.0000   0.0000   0.0000

          k = 0.1250-0.0722 0.0962 (   616 PWs)   bands (ev):

   -11.7394 -11.4467  -0.4507   1.2404   3.0686   3.1201   3.7487   3.7869
    13.5116  15.8213  15.9640  17.5437

     occupation numbers 
     1.0000   1.0000   1.0000   1.0000   1.0000   1.0000   1.0000   1.0000
     0.0000   0.0000   0.0000   0.0000

          k = 0.3750 0.6495 0.0962 (   638 PWs)   bands (ev):

    -5.8379  -5.7326  -4.9231  -4.8786  -2.2601  -2.1546   6.1028   6.7066
     8.4518   8.6141  18.2612  18.4100

     occupation numbers 
     1.0000   1.0000   1.0000   1.0000   1.0000   1.0000   1.0008   0.9992
     0.0000   0.0000   0.0000   0.0000

          k = 0.3750-0.2165 0.0962 (   632 PWs)   bands (ev):

    -8.8352  -8.5926  -3.2428  -3.0891   1.4321   1.4903   2.9374   4.3183
    10.8675  11.7511  14.9205  15.2601

     occupation numbers 
     1.0000   1.0000   1.0000   1.0000   1.0000   1.0000   1.0000   1.0000
     0.0000   0.0000   0.0000   0.0000

     the Fermi energy is     6.9567 ev

!    total energy              =     -45.57212541 Ry
     estimated scf accuracy    <          2.3E-11 Ry
     smearing contrib. (-TS)   =       0.00041727 Ry
     internal energy E=F+TS    =     -45.57254268 Ry

     The total energy is F=E-TS. E is the sum of the following terms:
     one-electron contribution =      -7.69697295 Ry
     hartree contribution      =      12.04982364 Ry
     xc contribution           =     -14.04939780 Ry
     ewald contribution        =     -35.87599557 Ry

     convergence has been achieved in  10 iterations

     Forces acting on atoms (cartesian axes, Ry/au):

     atom    1 type  1   force =    -0.00000000    0.00000000    0.00000000
     atom    2 type  1   force =     0.00000000    0.00000000    0.00000000
     atom    3 type  1   force =     0.00000000    0.00000000    0.00000000
     atom    4 type  1   force =     0.00000000    0.00000000    0.00000000
     The non-local contrib.  to forces
     atom    1 type  1   force =    -0.00000000    0.00000000    0.00000000
     atom    2 type  1   force =     0.00000000   -0.00000000    0.00000000
     atom    3 type  1   force =     0.00000000    0.00000000    0.00000000
     atom    4 type  1   force =     0.00000000    0.00000000    0.00000000
     The ionic contribution  to forces
     atom    1 type  1   force =     0.00000852   -0.00000492   -0.00000000
     atom    2 type  1   force =    -0.00000856    0.00000494    0.00000000
     atom    3 type  1   force =    -0.00000852    0.00000492    0.00000000
     atom    4 type  1   force =     0.00000856   -0.00000494    0.00000000
     The local contribution  to forces
     atom    1 type  1   force =    -0.00000000    0.00000000    0.00000000
     atom    2 type  1   force =    -0.00000803    0.00000463    0.00000000
     atom    3 type  1   force =     0.00000000   -0.00000000    0.00000000
     atom    4 type  1   force =     0.00000803   -0.00000463    0.00000000
     The core correction contribution to forces
     atom    1 type  1   force =     0.00000000    0.00000000    0.00000000
     atom    2 type  1   force =     0.00000000    0.00000000    0.00000000
     atom    3 type  1   force =     0.00000000    0.00000000    0.00000000
     atom    4 type  1   force =     0.00000000    0.00000000    0.00000000
     The Hubbard contrib.    to forces
     atom    1 type  1   force =     0.00000000    0.00000000    0.00000000
     atom    2 type  1   force =     0.00000000    0.00000000    0.00000000
     atom    3 type  1   force =     0.00000000    0.00000000    0.00000000
     atom    4 type  1   force =     0.00000000    0.00000000    0.00000000
     The SCF correction term to forces
     atom    1 type  1   force =    -0.00000000    0.00000000    0.00000000
     atom    2 type  1   force =     0.00000000   -0.00000000    0.00000000
     atom    3 type  1   force =     0.00000000   -0.00000000    0.00000000
     atom    4 type  1   force =    -0.00000000    0.00000000   -0.00000000

     Total force =     0.000000     Total SCF correction =     0.000000


     Computing stress (Cartesian axis) and pressure

          total   stress  (Ry/bohr**3)                   (kbar)     P=        3.63
  -0.00013930   0.00000000   0.00000000          -20.49        0.00        0.00
   0.00000000  -0.00013930  -0.00000000            0.00      -20.49       -0.00
   0.00000000   0.00000000   0.00035269            0.00        0.00       51.88

     kinetic stress (kbar)  11017.08      0.00      0.00
                                0.00  11017.08      0.00
                                0.00      0.00  12794.66

     local   stress (kbar) -16862.72      0.01      0.00
                                0.01 -16862.71     -0.00
                                0.00     -0.00  24154.19

     nonloc. stress (kbar)   -466.71      0.00      0.00
                                0.00   -466.71      0.00
                                0.00      0.00   -468.38

     hartree stress (kbar)   6715.23      0.00     -0.00
                                0.00   6715.23     -0.00
                               -0.00     -0.00  -5650.64

     exc-cor stress (kbar)  -2789.17      0.00     -0.00
                                0.00  -2789.17      0.00
                               -0.00      0.00  -2883.49

     corecor stress (kbar)      0.00      0.00      0.00
                                0.00      0.00      0.00
                                0.00      0.00      0.00

     ewald   stress (kbar)   2365.81     -0.03     -0.00
                               -0.03   2365.78     -0.00
                               -0.00     -0.00 -27894.47

     hubbard stress (kbar)      0.00      0.00      0.00
                                0.00      0.00      0.00
                                0.00      0.00      0.00

     DFT-D   stress (kbar)      0.00      0.00      0.00
                                0.00      0.00      0.00
                                0.00      0.00      0.00

     XDM     stress (kbar)      0.00      0.00      0.00
                                0.00      0.00      0.00
                                0.00      0.00      0.00

     dft-nl  stress (kbar)      0.00      0.00      0.00
                                0.00      0.00      0.00
                                0.00      0.00      0.00

     TS-vdW  stress (kbar)      0.00      0.00      0.00
                                0.00      0.00      0.00
                                0.00      0.00      0.00



     BFGS Geometry Optimization
     Energy error            =      0.0E+00
     Gradient error          =      8.2E-23
     Cell gradient error     =      3.5E-04


     number of scf cycles    =   1
     number of bfgs steps    =   0

     enthalpy new            =     -45.5721254093 Ry

     new trust radius        =       0.0266182140 bohr
     new conv_thr            =       0.0000000010 Ry

     new unit-cell volume =    228.25565 a.u.^3 (    33.82400 Ang^3 )
     density =      2.35865 g/cm^3

CELL_PARAMETERS (alat=  4.66006462)
   0.996517571   0.000000000   0.000000000
  -0.498258785   0.863009531   0.000000000
   0.000000000  -0.000000000   2.622679195

ATOMIC_POSITIONS (crystal)
C            -0.0000000000        1.0000000000        0.7500000000
C             0.6666670000        0.3333330000        0.7500000000
C            -0.0000000000        1.0000000000        0.2500000000
C             0.3333330000        0.6666670000        0.2500000000



     Writing output data file ./tmp/graphite.save/
     NEW-OLD atomic charge density approx. for the potential
     extrapolated charge   16.02880, renormalised to   16.00000

     total cpu time spent up to now is        0.5 secs

     Self-consistent Calculation

     iteration #  1     ecut=    30.00 Ry     beta= 0.30
     Davidson diagonalization with overlap
     c_bands:  1 eigenvalues not converged
     ethr =  1.00E-06,  avg # of iterations =  7.3

     total cpu time spent up to now is        0.6 secs

     total energy              =     -45.57276903 Ry
     estimated scf accuracy    <       0.00003041 Ry

     iteration #  2     ecut=    30.00 Ry     beta= 0.30
     Davidson diagonalization with overlap
     ethr =  1.90E-07,  avg # of iterations =  2.0

     total cpu time spent up to now is        0.6 secs

     total energy              =     -45.57279125 Ry
     estimated scf accuracy    <       0.00004303 Ry

     iteration #  3     ecut=    30.00 Ry     beta= 0.30
     Davidson diagonalization with overlap
     ethr =  1.90E-07,  avg # of iterations =  1.0

     total cpu time spent up to now is        0.7 secs

     total energy              =     -45.57276371 Ry
     estimated scf accuracy    <       0.00005244 Ry

     iteration #  4     ecut=    30.00 Ry     beta= 0.30
     Davidson diagonalization with overlap
     ethr =  1.90E-07,  avg # of iterations =  2.0

     total cpu time spent up to now is        0.7 secs

     total energy              =     -45.57277302 Ry
     estimated scf accuracy    <       0.00000121 Ry

     iteration #  5     ecut=    30.00 Ry     beta= 0.30
     Davidson diagonalization with overlap
     ethr =  7.54E-09,  avg # of iterations =  1.0

     total cpu time spent up to now is        0.7 secs

     total energy              =     -45.57277261 Ry
     estimated scf accuracy    <       0.00000104 Ry

     iteration #  6     ecut=    30.00 Ry     beta= 0.30
     Davidson diagonalization with overlap
     ethr =  6.47E-09,  avg # of iterations =  1.0

     total cpu time spent up to now is        0.7 secs

     total energy              =     -45.57277270 Ry
     estimated scf accuracy    <       0.00000013 Ry

     iteration #  7     ecut=    30.00 Ry     beta= 0.30
     Davidson diagonalization with overlap
     ethr =  8.26E-10,  avg # of iterations =  1.0

     total cpu time spent up to now is        0.8 secs

     total energy              =     -45.57277261 Ry
     estimated scf accuracy    <       0.00000016 Ry

     iteration #  8     ecut=    30.00 Ry     beta= 0.30
     Davidson diagonalization with overlap
     ethr =  8.26E-10,  avg # of iterations =  2.0

     total cpu time spent up to now is        0.8 secs

     End of self-consistent calculation

          k = 0.1254 0.2173 0.0953 (   626 PWs)   bands (ev):

   -11.0904 -10.8294   0.3867   1.2475   1.2903   1.9522   2.3146   2.3447
    14.1997  15.5598  15.9133  16.6952

     occupation numbers 
     1.0000   1.0000   1.0000   1.0000   1.0000   1.0000   1.0000   1.0000
     0.0000   0.0000   0.0000   0.0000

          k = 0.1254 0.5069 0.0953 (   635 PWs)   bands (ev):

    -7.5297  -7.3314  -4.6129  -4.4617  -0.0024   0.0758   4.3845   5.4074
     9.4245  10.1074  16.3639  16.7543

     occupation numbers 
     1.0000   1.0000   1.0000   1.0000   1.0000   1.0000   1.0000   1.0000
     0.0000   0.0000   0.0000   0.0000

          k = 0.1254-0.3621 0.0953 (   638 PWs)   bands (ev):

    -9.6289  -9.3914  -1.5775  -1.4719   0.7732   0.8389   2.1130   3.5474
    12.4230  13.0078  15.8662  16.7350

     occupation numbers 
     1.0000   1.0000   1.0000   1.0000   1.0000   1.0000   1.0000   1.0000
     0.0000   0.0000   0.0000   0.0000

          k = 0.1254-0.0724 0.0953 (   616 PWs)   bands (ev):

   -11.8325 -11.5595  -0.5060   1.1108   3.0460   3.0929   3.7237   3.7582
    13.3412  15.8764  16.0123  17.3516

     occupation numbers 
     1.0000   1.0000   1.0000   1.0000   1.0000   1.0000   1.0000   1.0000
     0.0000   0.0000   0.0000   0.0000

          k = 0.3763 0.6518 0.0953 (   638 PWs)   bands (ev):

    -5.8883  -5.7908  -4.9926  -4.9500  -2.3354  -2.2370   6.0958   6.6710
     8.4395   8.5842  18.2611  18.4156

     occupation numbers 
     1.0000   1.0000   1.0000   1.0000   1.0000   1.0000   1.0013   0.9987
     0.0000   0.0000   0.0000   0.0000

          k = 0.3763-0.2173 0.0953 (   632 PWs)   bands (ev):

    -8.9111  -8.6854  -3.2965  -3.1544   1.3860   1.4388   2.9080   4.2277
    10.8935  11.7404  15.0092  15.3232

     occupation numbers 
     1.0000   1.0000   1.0000   1.0000   1.0000   1.0000   1.0000   1.0000
     0.0000   0.0000   0.0000   0.0000

     the Fermi energy is     6.9207 ev

!    total energy              =     -45.57277263 Ry
     estimated scf accuracy    <          6.3E-10 Ry
     smearing contrib. (-TS)   =       0.00042268 Ry
     internal energy E=F+TS    =     -45.57319532 Ry

     The total energy is F=E-TS. E is the sum of the following terms:
     one-electron contribution =      -8.42541469 Ry
     hartree contribution      =      12.39607154 Ry
     xc contribution           =     -14.07758242 Ry
     ewald contribution        =     -35.46626975 Ry

     convergence has been achieved in   8 iterations

     Forces acting on atoms (cartesian axes, Ry/au):

     atom    1 type  1   force =     0.00000000    0.00000000   -0.00000000
     atom    2 type  1   force =     0.00000000   -0.00000000   -0.00000000
     atom    3 type  1   force =    -0.00000000    0.00000000    0.00000000
     atom    4 type  1   force =     0.00000000   -0.00000000   -0.00000000
     The non-local contrib.  to forces
     atom    1 type  1   force =    -0.00000000    0.00000000    0.00000000
     atom    2 type  1   force =     0.00000000    0.00000000    0.00000000
     atom    3 type  1   force =     0.00000000    0.00000000    0.00000000
     atom    4 type  1   force =     0.00000000    0.00000000    0.00000000
     The ionic contribution  to forces
     atom    1 type  1   force =     0.00000858   -0.00000495   -0.00000000
     atom    2 type  1   force =    -0.00000861    0.00000497   -0.00000000
     atom    3 type  1   force =    -0.00000858    0.00000495    0.00000000
     atom    4 type  1   force =     0.00000861   -0.00000497    0.00000000
     The local contribution  to forces
     atom    1 type  1   force =    -0.00000000    0.00000000    0.00000000
     atom    2 type  1   force =    -0.00000798    0.00000461    0.00000000
     atom    3 type  1   force =    -0.00000000   -0.00000000    0.00000000
     atom    4 type  1   force =     0.00000798   -0.00000461    0.00000000
     The core correction contribution to forces
     atom    1 type  1   force =     0.00000000    0.00000000    0.00000000
     atom    2 type  1   force =     0.00000000    0.00000000    0.00000000
     atom    3 type  1   force =     0.00000000    0.00000000    0.00000000
     atom    4 type  1   force =     0.00000000    0.00000000    0.00000000
     The Hubbard contrib.    to forces
     atom    1 type  1   force =     0.00000000    0.00000000    0.00000000
     atom    2 type  1   force =     0.00000000    0.00000000    0.00000000
     atom    3 type  1   force =     0.00000000    0.00000000    0.00000000
     atom    4 type  1   force =     0.00000000    0.00000000    0.00000000
     The SCF correction term to forces
     atom    1 type  1   force =    -0.00000000    0.00000000   -0.00000000
     atom    2 type  1   force =    -0.00000000    0.00000000    0.00000000
     atom    3 type  1   force =     0.00000000   -0.00000000    0.00000000
     atom    4 type  1   force =     0.00000000   -0.00000000   -0.00000000

     Total force =     0.000000     Total SCF correction =     0.000000


     Computing stress (Cartesian axis) and pressure

          total   stress  (Ry/bohr**3)                   (kbar)     P=       31.96
   0.00016792  -0.00000000  -0.00000000           24.70       -0.00       -0.00
  -0.00000000   0.00016792   0.00000000           -0.00       24.70        0.00
  -0.00000000   0.00000000   0.00031600           -0.00        0.00       46.49

     kinetic stress (kbar)  11041.31     -0.00     -0.00
                               -0.00  11041.31     -0.00
                               -0.00      0.00  12794.57

     local   stress (kbar) -17398.44      0.01      0.00
                                0.01 -17398.42     -0.00
                                0.00     -0.00  24771.56

     nonloc. stress (kbar)   -474.80     -0.00     -0.00
                               -0.00   -474.80     -0.00
                                0.00     -0.00   -474.07

     hartree stress (kbar)   6932.73     -0.00     -0.00
                               -0.00   6932.73      0.00
                               -0.00      0.00  -5876.49

     exc-cor stress (kbar)  -2789.65     -0.00     -0.00
                               -0.00  -2789.65     -0.00
                               -0.00     -0.00  -2884.86

     corecor stress (kbar)      0.00      0.00      0.00
                                0.00      0.00      0.00
                                0.00      0.00      0.00

     ewald   stress (kbar)   2713.56     -0.03     -0.00
                               -0.03   2713.53     -0.00
                               -0.00     -0.00 -28284.22

     hubbard stress (kbar)      0.00      0.00      0.00
                                0.00      0.00      0.00
                                0.00      0.00      0.00

     DFT-D   stress (kbar)      0.00      0.00      0.00
                                0.00      0.00      0.00
                                0.00      0.00      0.00

     XDM     stress (kbar)      0.00      0.00      0.00
                                0.00      0.00      0.00
                                0.00      0.00      0.00

     dft-nl  stress (kbar)      0.00      0.00      0.00
                                0.00      0.00      0.00
                                0.00      0.00      0.00

     TS-vdW  stress (kbar)      0.00      0.00      0.00
                                0.00      0.00      0.00
                                0.00      0.00      0.00


     Energy error            =      6.5E-04
     Gradient error          =      1.6E-22
     Cell gradient error     =      3.2E-04


     number of scf cycles    =   2
     number of bfgs steps    =   1

     enthalpy old            =     -45.5721254093 Ry
     enthalpy new            =     -45.5727726337 Ry

     CASE: enthalpy_new < enthalpy_old

     new trust radius        =       0.0792280367 bohr
     new conv_thr            =            1.0E-11 Ry

     new unit-cell volume =    234.01652 a.u.^3 (    34.67767 Ang^3 )
     density =      2.30059 g/cm^3

CELL_PARAMETERS (alat=  4.66006462)
   0.996040833  -0.000000000  -0.000000000
  -0.498020417   0.862596665   0.000000000
   0.000000000  -0.000000000   2.691446705

ATOMIC_POSITIONS (crystal)
C            -0.0000000000        1.0000000000        0.7500000000
C             0.6666670000        0.3333330000        0.7500000000
C            -0.0000000000        1.0000000000        0.2500000000
C             0.3333330000        0.6666670000        0.2500000000



     Writing output data file ./tmp/graphite.save/
     NEW-OLD atomic charge density approx. for the potential
     extrapolated charge   16.39387, renormalised to   16.00000

     total cpu time spent up to now is        0.9 secs

     Self-consistent Calculation

     iteration #  1     ecut=    30.00 Ry     beta= 0.30
     Davidson diagonalization with overlap
     ethr =  1.00E-06,  avg # of iterations =  8.5

     total cpu time spent up to now is        0.9 secs

     total energy              =     -45.56894380 Ry
     estimated scf accuracy    <       0.00215288 Ry

     iteration #  2     ecut=    30.00 Ry     beta= 0.30
     Davidson diagonalization with overlap
     ethr =  1.35E-05,  avg # of iterations =  4.3

     total cpu time spent up to now is        1.0 secs

     total energy              =     -45.57461992 Ry
     estimated scf accuracy    <       0.00116551 Ry

     iteration #  3     ecut=    30.00 Ry     beta= 0.30
     Davidson diagonalization with overlap
     ethr =  7.28E-06,  avg # of iterations =  1.2

     total cpu time spent up to now is        1.0 secs

     total energy              =     -45.57417520 Ry
     estimated scf accuracy    <       0.00069344 Ry

     iteration #  4     ecut=    30.00 Ry     beta= 0.30
     Davidson diagonalization with overlap
     ethr =  4.33E-06,  avg # of iterations =  2.0

     total cpu time spent up to now is        1.0 secs

     total energy              =     -45.57432904 Ry
     estimated scf accuracy    <       0.00007117 Ry

     iteration #  5     ecut=    30.00 Ry     beta= 0.30
     Davidson diagonalization with overlap
     ethr =  4.45E-07,  avg # of iterations =  1.7

     total cpu time spent up to now is        1.1 secs

     total energy              =     -45.57431987 Ry
     estimated scf accuracy    <       0.00001886 Ry

     iteration #  6     ecut=    30.00 Ry     beta= 0.30
     Davidson diagonalization with overlap
     ethr =  1.18E-07,  avg # of iterations =  2.0

     total cpu time spent up to now is        1.1 secs

     total energy              =     -45.57432298 Ry
     estimated scf accuracy    <       0.00000003 Ry

     iteration #  7     ecut=    30.00 Ry     beta= 0.30
     Davidson diagonalization with overlap
     ethr =  1.62E-10,  avg # of iterations =  2.5

     total cpu time spent up to now is        1.1 secs

     total energy              =     -45.57432290 Ry
     estimated scf accuracy    <       0.00000021 Ry

     iteration #  8     ecut=    30.00 Ry     beta= 0.30
     Davidson diagonalization with overlap
     ethr =  1.62E-10,  avg # of iterations =  2.0

     total cpu time spent up to now is        1.2 secs

     total energy              =     -45.57432295 Ry
     estimated scf accuracy    <       0.00000002 Ry

     iteration #  9     ecut=    30.00 Ry     beta= 0.30
     Davidson diagonalization with overlap
     ethr =  9.71E-11,  avg # of iterations =  2.0

     total cpu time spent up to now is        1.2 secs

     total energy              =     -45.57432295 Ry
     estimated scf accuracy    <          1.4E-09 Ry

     iteration # 10     ecut=    30.00 Ry     beta= 0.30
     Davidson diagonalization with overlap
     ethr =  8.61E-12,  avg # of iterations =  1.8

     total cpu time spent up to now is        1.2 secs

     total energy              =     -45.57432295 Ry
     estimated scf accuracy    <          4.8E-11 Ry

     iteration # 11     ecut=    30.00 Ry     beta= 0.30
     Davidson diagonalization with overlap
     ethr =  3.00E-13,  avg # of iterations =  2.0

     total cpu time spent up to now is        1.3 secs

     End of self-consistent calculation

          k = 0.1255 0.2174 0.0929 (   626 PWs)   bands (ev):

   -11.3645 -11.1502   0.1776   0.9617   0.9954   1.5552   2.0253   2.0490
    13.6263  15.3224  15.6216  16.4111

     occupation numbers 
     1.0000   1.0000   1.0000   1.0000   1.0000   1.0000   1.0000   1.0000
     0.0000   0.0000   0.0000   0.0000

          k = 0.1255 0.5072 0.0929 (   635 PWs)   bands (ev):

    -7.8061  -7.6445  -4.8931  -4.7707  -0.2884  -0.2264   4.1627   5.0588
     9.1744   9.7776  16.1229  16.4526

     occupation numbers 
     1.0000   1.0000   1.0000   1.0000   1.0000   1.0000   1.0000   1.0000
     0.0000   0.0000   0.0000   0.0000

          k = 0.1255-0.3623 0.0929 (   638 PWs)   bands (ev):

    -9.9039  -9.7095  -1.8591  -1.7745   0.4864   0.5384   1.9018   3.1619
    12.1885  12.6941  15.3385  16.4805

     occupation numbers 
     1.0000   1.0000   1.0000   1.0000   1.0000   1.0000   1.0000   1.0000
     0.0000   0.0000   0.0000   0.0000

          k = 0.1255-0.0725 0.0929 (   616 PWs)   bands (ev):

   -12.1061 -11.8816  -0.7147   0.7092   2.7610   2.7977   3.4369   3.4638
    12.7500  15.6037  15.7228  17.0274

     occupation numbers 
     1.0000   1.0000   1.0000   1.0000   1.0000   1.0000   1.0000   1.0000
     0.0000   0.0000   0.0000   0.0000

          k = 0.3765 0.6521 0.0929 (   638 PWs)   bands (ev):

    -6.1696  -6.0907  -5.2854  -5.2504  -2.6224  -2.5431   5.8656   6.3670
     8.1569   8.2671  17.9749  18.1063

     occupation numbers 
     1.0000   1.0000   1.0000   1.0000   1.0000   1.0000   1.0042   0.9958
     0.0000   0.0000   0.0000   0.0000

          k = 0.3765-0.2174 0.0929 (   632 PWs)   bands (ev):

    -9.1864  -9.0020  -3.5763  -3.4618   1.0984   1.1396   2.6942   3.8522
    10.6636  11.4039  14.7626  15.0177

     occupation numbers 
     1.0000   1.0000   1.0000   1.0000   1.0000   1.0000   1.0000   1.0000
     0.0000   0.0000   0.0000   0.0000

     the Fermi energy is     6.6147 ev

!    total energy              =     -45.57432295 Ry
     estimated scf accuracy    <          4.1E-13 Ry
     smearing contrib. (-TS)   =       0.00045078 Ry
     internal energy E=F+TS    =     -45.57477373 Ry

     The total energy is F=E-TS. E is the sum of the following terms:
     one-electron contribution =     -10.39427723 Ry
     hartree contribution      =      13.20748173 Ry
     xc contribution           =     -14.07750111 Ry
     ewald contribution        =     -34.31047712 Ry

     convergence has been achieved in  11 iterations

     Forces acting on atoms (cartesian axes, Ry/au):

     atom    1 type  1   force =     0.00000000    0.00000000    0.00000000
     atom    2 type  1   force =     0.00000000    0.00000000    0.00000000
     atom    3 type  1   force =     0.00000000    0.00000000    0.00000000
     atom    4 type  1   force =     0.00000000    0.00000000    0.00000000
     The non-local contrib.  to forces
     atom    1 type  1   force =     0.00000000    0.00000000    0.00000000
     atom    2 type  1   force =     0.00000000   -0.00000000   -0.00000000
     atom    3 type  1   force =    -0.00000000    0.00000000    0.00000000
     atom    4 type  1   force =    -0.00000000    0.00000000    0.00000000
     The ionic contribution  to forces
     atom    1 type  1   force =     0.00000859   -0.00000496   -0.00000000
     atom    2 type  1   force =    -0.00000862    0.00000497   -0.00000000
     atom    3 type  1   force =    -0.00000859    0.00000496   -0.00000000
     atom    4 type  1   force =     0.00000862   -0.00000497   -0.00000000
     The local contribution  to forces
     atom    1 type  1   force =    -0.00000000    0.00000000    0.00000000
     atom    2 type  1   force =    -0.00000797    0.00000460    0.00000000
     atom    3 type  1   force =     0.00000000   -0.00000000    0.00000000
     atom    4 type  1   force =     0.00000797   -0.00000460    0.00000000
     The core correction contribution to forces
     atom    1 type  1   force =     0.00000000    0.00000000    0.00000000
     atom    2 type  1   force =     0.00000000    0.00000000    0.00000000
     atom    3 type  1   force =     0.00000000    0.00000000    0.00000000
     atom    4 type  1   force =     0.00000000    0.00000000    0.00000000
     The Hubbard contrib.    to forces
     atom    1 type  1   force =     0.00000000    0.00000000    0.00000000
     atom    2 type  1   force =     0.00000000    0.00000000    0.00000000
     atom    3 type  1   force =     0.00000000    0.00000000    0.00000000
     atom    4 type  1   force =     0.00000000    0.00000000    0.00000000
     The SCF correction term to forces
     atom    1 type  1   force =     0.00000000   -0.00000000   -0.00000000
     atom    2 type  1   force =     0.00000000   -0.00000000   -0.00000000
     atom    3 type  1   force =    -0.00000000    0.00000000   -0.00000000
     atom    4 type  1   force =    -0.00000000    0.00000000   -0.00000000

     Total force =     0.000000     Total SCF correction =     0.000000


     Computing stress (Cartesian axis) and pressure

          total   stress  (Ry/bohr**3)                   (kbar)     P=       31.23
   0.00020930  -0.00000000  -0.00000000           30.79       -0.00       -0.00
  -0.00000000   0.00020930   0.00000000           -0.00       30.79        0.00
  -0.00000000   0.00000000   0.00021835           -0.00        0.00       32.12

     kinetic stress (kbar)  10774.52     -0.00     -0.00
                               -0.00  10774.52      0.00
                               -0.00      0.00  12474.84

     local   stress (kbar) -18213.55      0.01     -0.00
                                0.01 -18213.54      0.00
                               -0.00      0.00  25413.09

     nonloc. stress (kbar)   -464.99      0.00      0.00
                                0.00   -464.99      0.00
                                0.00     -0.00   -464.09

     hartree stress (kbar)   7272.09     -0.00      0.00
                               -0.00   7272.09      0.00
                                0.00      0.00  -6241.82

     exc-cor stress (kbar)  -2720.52      0.00     -0.00
                                0.00  -2720.52     -0.00
                               -0.00     -0.00  -2815.53

     corecor stress (kbar)      0.00      0.00      0.00
                                0.00      0.00      0.00
                                0.00      0.00      0.00

     ewald   stress (kbar)   3383.25     -0.03      0.00
                               -0.03   3383.22     -0.00
                                0.00     -0.00 -28334.37

     hubbard stress (kbar)      0.00      0.00      0.00
                                0.00      0.00      0.00
                                0.00      0.00      0.00

     DFT-D   stress (kbar)      0.00      0.00      0.00
                                0.00      0.00      0.00
                                0.00      0.00      0.00

     XDM     stress (kbar)      0.00      0.00      0.00
                                0.00      0.00      0.00
                                0.00      0.00      0.00

     dft-nl  stress (kbar)      0.00      0.00      0.00
                                0.00      0.00      0.00
                                0.00      0.00      0.00

     TS-vdW  stress (kbar)      0.00      0.00      0.00
                                0.00      0.00      0.00
                                0.00      0.00      0.00


     Energy error            =      1.6E-03
     Gradient error          =      0.0E+00
     Cell gradient error     =      2.2E-04


     number of scf cycles    =   3
     number of bfgs steps    =   2

     enthalpy old            =     -45.5727726337 Ry
     enthalpy new            =     -45.5743229517 Ry

     CASE: enthalpy_new < enthalpy_old

     new trust radius        =       0.1172578776 bohr
     new conv_thr            =            1.0E-11 Ry

     new unit-cell volume =    243.66394 a.u.^3 (    36.10727 Ang^3 )
     density =      2.20950 g/cm^3

CELL_PARAMETERS (alat=  4.66006462)
   0.997430719  -0.000000000  -0.000000000
  -0.498715359   0.863800341   0.000000000
   0.000000000  -0.000000000   2.794597971

ATOMIC_POSITIONS (crystal)
C            -0.0000000000        1.0000000000        0.7500000000
C             0.6666670000        0.3333330000        0.7500000000
C            -0.0000000000        1.0000000000        0.2500000000
C             0.3333330000        0.6666670000        0.2500000000



     Writing output data file ./tmp/graphite.save/
     NEW-OLD atomic charge density approx. for the potential
     extrapolated charge   16.63348, renormalised to   16.00000

     total cpu time spent up to now is        1.3 secs

     Self-consistent Calculation

     iteration #  1     ecut=    30.00 Ry     beta= 0.30
     Davidson diagonalization with overlap
     ethr =  1.00E-06,  avg # of iterations =  9.5

     total cpu time spent up to now is        1.4 secs

     total energy              =     -45.55976461 Ry
     estimated scf accuracy    <       0.00690742 Ry

     iteration #  2     ecut=    30.00 Ry     beta= 0.30
     Davidson diagonalization with overlap
     ethr =  4.32E-05,  avg # of iterations =  5.2

     total cpu time spent up to now is        1.5 secs

     total energy              =     -45.57659540 Ry
     estimated scf accuracy    <       0.00315220 Ry

     iteration #  3     ecut=    30.00 Ry     beta= 0.30
     Davidson diagonalization with overlap
     ethr =  1.97E-05,  avg # of iterations =  1.2

     total cpu time spent up to now is        1.5 secs

     total energy              =     -45.57540489 Ry
     estimated scf accuracy    <       0.00182759 Ry

     iteration #  4     ecut=    30.00 Ry     beta= 0.30
     Davidson diagonalization with overlap
     ethr =  1.14E-05,  avg # of iterations =  2.2

     total cpu time spent up to now is        1.5 secs

     total energy              =     -45.57581564 Ry
     estimated scf accuracy    <       0.00018559 Ry

     iteration #  5     ecut=    30.00 Ry     beta= 0.30
     Davidson diagonalization with overlap
     ethr =  1.16E-06,  avg # of iterations =  2.5

     total cpu time spent up to now is        1.5 secs

     total energy              =     -45.57579297 Ry
     estimated scf accuracy    <       0.00004590 Ry

     iteration #  6     ecut=    30.00 Ry     beta= 0.30
     Davidson diagonalization with overlap
     ethr =  2.87E-07,  avg # of iterations =  2.0

     total cpu time spent up to now is        1.6 secs

     total energy              =     -45.57580159 Ry
     estimated scf accuracy    <       0.00000078 Ry

     iteration #  7     ecut=    30.00 Ry     beta= 0.30
     Davidson diagonalization with overlap
     ethr =  4.88E-09,  avg # of iterations =  2.0

     total cpu time spent up to now is        1.6 secs

     total energy              =     -45.57580174 Ry
     estimated scf accuracy    <       0.00000015 Ry

     iteration #  8     ecut=    30.00 Ry     beta= 0.30
     Davidson diagonalization with overlap
     ethr =  9.21E-10,  avg # of iterations =  2.0

     total cpu time spent up to now is        1.7 secs

     total energy              =     -45.57580178 Ry
     estimated scf accuracy    <       0.00000002 Ry

     iteration #  9     ecut=    30.00 Ry     beta= 0.30
     Davidson diagonalization with overlap
     ethr =  1.13E-10,  avg # of iterations =  2.0

     total cpu time spent up to now is        1.7 secs

     total energy              =     -45.57580179 Ry
     estimated scf accuracy    <          3.0E-09 Ry

     iteration # 10     ecut=    30.00 Ry     beta= 0.30
     Davidson diagonalization with overlap
     ethr =  1.89E-11,  avg # of iterations =  1.8

     total cpu time spent up to now is        1.7 secs

     total energy              =     -45.57580179 Ry
     estimated scf accuracy    <          1.8E-10 Ry

     iteration # 11     ecut=    30.00 Ry     beta= 0.30
     Davidson diagonalization with overlap
     ethr =  1.12E-12,  avg # of iterations =  2.0

     total cpu time spent up to now is        1.8 secs

     End of self-consistent calculation

          k = 0.1253 0.2171 0.0895 (   626 PWs)   bands (ev):

   -11.7578 -11.5982  -0.1369   0.5159   0.5397   1.0006   1.5814   1.5982
    12.8282  14.8834  15.1164  15.9004

     occupation numbers 
     1.0000   1.0000   1.0000   1.0000   1.0000   1.0000   1.0000   1.0000
     0.0000   0.0000   0.0000   0.0000

          k = 0.1253 0.5065 0.0895 (   635 PWs)   bands (ev):

    -8.2164  -8.0973  -5.3110  -5.2217  -0.7197  -0.6757   3.8091   4.5423
     8.7665   9.2638  15.6663  15.9220

     occupation numbers 
     1.0000   1.0000   1.0000   1.0000   1.0000   1.0000   1.0000   1.0000
     0.0000   0.0000   0.0000   0.0000

          k = 0.1253-0.3618 0.0895 (   638 PWs)   bands (ev):

   -10.3036 -10.1593  -2.2911  -2.2302   0.0516   0.0885   1.5757   2.6127
    11.7758  12.1807  14.5836  16.0118

     occupation numbers 
     1.0000   1.0000   1.0000   1.0000   1.0000   1.0000   1.0000   1.0000
     0.0000   0.0000   0.0000   0.0000

          k = 0.1253-0.0724 0.0895 (   616 PWs)   bands (ev):

   -12.4963 -12.3287  -1.0240   0.1532   2.3128   2.3385   2.9879   3.0064
    11.9345  15.1168  15.2262  15.8412

     occupation numbers 
     1.0000   1.0000   1.0000   1.0000   1.0000   1.0000   1.0000   1.0000
     0.0000   0.0000   0.0000   0.0000

          k = 0.3760 0.6512 0.0895 (   638 PWs)   bands (ev):

    -6.5966  -6.5390  -5.7161  -5.6904  -3.0423  -2.9851   5.4891   5.8960
     7.7075   7.7816  17.5210  17.6084

     occupation numbers 
     1.0000   1.0000   1.0000   1.0000   1.0000   1.0000   1.0154   0.9846
     0.0000   0.0000   0.0000   0.0000

          k = 0.3760-0.2171 0.0895 (   632 PWs)   bands (ev):

    -9.5894  -9.4528  -3.9990  -3.9156   0.6606   0.6891   2.3601   3.3112
    10.2709  10.8726  14.3025  14.4893

     occupation numbers 
     1.0000   1.0000   1.0000   1.0000   1.0000   1.0000   1.0000   1.0000
     0.0000   0.0000   0.0000   0.0000

     the Fermi energy is     6.1360 ev

!    total energy              =     -45.57580179 Ry
     estimated scf accuracy    <          4.5E-12 Ry
     smearing contrib. (-TS)   =       0.00054304 Ry
     internal energy E=F+TS    =     -45.57634483 Ry

     The total energy is F=E-TS. E is the sum of the following terms:
     one-electron contribution =     -13.30974501 Ry
     hartree contribution      =      14.39703873 Ry
     xc contribution           =     -14.06081905 Ry
     ewald contribution        =     -32.60281950 Ry

     convergence has been achieved in  11 iterations

     Forces acting on atoms (cartesian axes, Ry/au):

     atom    1 type  1   force =     0.00000000    0.00000000   -0.00000000
     atom    2 type  1   force =     0.00000000    0.00000000    0.00000000
     atom    3 type  1   force =     0.00000000    0.00000000   -0.00000000
     atom    4 type  1   force =     0.00000000    0.00000000    0.00000000
     The non-local contrib.  to forces
     atom    1 type  1   force =     0.00000000    0.00000000    0.00000000
     atom    2 type  1   force =     0.00000000    0.00000000    0.00000000
     atom    3 type  1   force =     0.00000000    0.00000000    0.00000000
     atom    4 type  1   force =     0.00000000   -0.00000000   -0.00000000
     The ionic contribution  to forces
     atom    1 type  1   force =     0.00000857   -0.00000495   -0.00000000
     atom    2 type  1   force =    -0.00000859    0.00000496   -0.00000000
     atom    3 type  1   force =    -0.00000857    0.00000495    0.00000000
     atom    4 type  1   force =     0.00000859   -0.00000496    0.00000000
     The local contribution  to forces
     atom    1 type  1   force =    -0.00000000    0.00000000    0.00000000
     atom    2 type  1   force =    -0.00000799    0.00000461    0.00000000
     atom    3 type  1   force =     0.00000000   -0.00000000    0.00000000
     atom    4 type  1   force =     0.00000799   -0.00000461    0.00000000
     The core correction contribution to forces
     atom    1 type  1   force =     0.00000000    0.00000000    0.00000000
     atom    2 type  1   force =     0.00000000    0.00000000    0.00000000
     atom    3 type  1   force =     0.00000000    0.00000000    0.00000000
     atom    4 type  1   force =     0.00000000    0.00000000    0.00000000
     The Hubbard contrib.    to forces
     atom    1 type  1   force =     0.00000000    0.00000000    0.00000000
     atom    2 type  1   force =     0.00000000    0.00000000    0.00000000
     atom    3 type  1   force =     0.00000000    0.00000000    0.00000000
     atom    4 type  1   force =     0.00000000    0.00000000    0.00000000
     The SCF correction term to forces
     atom    1 type  1   force =    -0.00000000    0.00000000   -0.00000000
     atom    2 type  1   force =     0.00000000   -0.00000000   -0.00000000
     atom    3 type  1   force =     0.00000000   -0.00000000   -0.00000000
     atom    4 type  1   force =    -0.00000000    0.00000000   -0.00000000

     Total force =     0.000000     Total SCF correction =     0.000000


     Computing stress (Cartesian axis) and pressure

          total   stress  (Ry/bohr**3)                   (kbar)     P=       13.13
   0.00008793  -0.00000000  -0.00000000           12.93       -0.00       -0.00
  -0.00000000   0.00008793   0.00000000           -0.00       12.93        0.00
  -0.00000000   0.00000000   0.00009189           -0.00        0.00       13.52

     kinetic stress (kbar)  10330.77     -0.00     -0.00
                               -0.00  10330.77      0.00
                               -0.00      0.00  11962.97

     local   stress (kbar) -19207.58      0.01      0.00
                                0.01 -19207.56      0.00
                                0.00      0.00  26077.81

     nonloc. stress (kbar)   -444.63      0.00      0.00
                                0.00   -444.63     -0.00
                                0.00     -0.00   -446.25

     hartree stress (kbar)   7698.71      0.00      0.00
                                0.00   7698.71     -0.00
                                0.00     -0.00  -6705.62

     exc-cor stress (kbar)  -2609.11      0.00      0.00
                                0.00  -2609.11      0.00
                                0.00      0.00  -2702.85

     corecor stress (kbar)      0.00      0.00      0.00
                                0.00      0.00      0.00
                                0.00      0.00      0.00

     ewald   stress (kbar)   4244.78     -0.02     -0.00
                               -0.02   4244.76      0.00
                               -0.00      0.00 -28172.55

     hubbard stress (kbar)      0.00      0.00      0.00
                                0.00      0.00      0.00
                                0.00      0.00      0.00

     DFT-D   stress (kbar)      0.00      0.00      0.00
                                0.00      0.00      0.00
                                0.00      0.00      0.00

     XDM     stress (kbar)      0.00      0.00      0.00
                                0.00      0.00      0.00
                                0.00      0.00      0.00

     dft-nl  stress (kbar)      0.00      0.00      0.00
                                0.00      0.00      0.00
                                0.00      0.00      0.00

     TS-vdW  stress (kbar)      0.00      0.00      0.00
                                0.00      0.00      0.00
                                0.00      0.00      0.00


     Energy error            =      1.5E-03
     Gradient error          =      7.1E-23
     Cell gradient error     =      9.2E-05


     number of scf cycles    =   4
     number of bfgs steps    =   3

     enthalpy old            =     -45.5743229517 Ry
     enthalpy new            =     -45.5758017925 Ry

     CASE: enthalpy_new < enthalpy_old

     new trust radius        =       0.0841856452 bohr
     new conv_thr            =            1.0E-11 Ry

     new unit-cell volume =    250.77141 a.u.^3 (    37.16049 Ang^3 )
     density =      2.14688 g/cm^3

CELL_PARAMETERS (alat=  4.66006462)
   0.998500154  -0.000000000  -0.000000000
  -0.499250077   0.864726499   0.000000000
   0.000000000  -0.000000000   2.869956387

ATOMIC_POSITIONS (crystal)
C            -0.0000000000        1.0000000000        0.7500000000
C             0.6666670000        0.3333330000        0.7500000000
C            -0.0000000000        1.0000000000        0.2500000000
C             0.3333330000        0.6666670000        0.2500000000



     Writing output data file ./tmp/graphite.save/
     NEW-OLD atomic charge density approx. for the potential
     extrapolated charge   16.45347, renormalised to   16.00000

     total cpu time spent up to now is        1.8 secs

     Self-consistent Calculation

     iteration #  1     ecut=    30.00 Ry     beta= 0.30
     Davidson diagonalization with overlap
     ethr =  1.00E-06,  avg # of iterations =  7.7

     total cpu time spent up to now is        1.9 secs

     total energy              =     -45.56736114 Ry
     estimated scf accuracy    <       0.00398239 Ry

     iteration #  2     ecut=    30.00 Ry     beta= 0.30
     Davidson diagonalization with overlap
     ethr =  2.49E-05,  avg # of iterations =  5.3

     total cpu time spent up to now is        1.9 secs

     total energy              =     -45.57653869 Ry
     estimated scf accuracy    <       0.00161274 Ry

     iteration #  3     ecut=    30.00 Ry     beta= 0.30
     Davidson diagonalization with overlap
     ethr =  1.01E-05,  avg # of iterations =  1.7

     total cpu time spent up to now is        2.0 secs

     total energy              =     -45.57594006 Ry
     estimated scf accuracy    <       0.00091592 Ry

     iteration #  4     ecut=    30.00 Ry     beta= 0.30
     Davidson diagonalization with overlap
     ethr =  5.72E-06,  avg # of iterations =  2.7

     total cpu time spent up to now is        2.0 secs

     total energy              =     -45.57615053 Ry
     estimated scf accuracy    <       0.00011505 Ry

     iteration #  5     ecut=    30.00 Ry     beta= 0.30
     Davidson diagonalization with overlap
     ethr =  7.19E-07,  avg # of iterations =  1.5

     total cpu time spent up to now is        2.0 secs

     total energy              =     -45.57613871 Ry
     estimated scf accuracy    <       0.00002548 Ry

     iteration #  6     ecut=    30.00 Ry     beta= 0.30
     Davidson diagonalization with overlap
     ethr =  1.59E-07,  avg # of iterations =  2.2

     total cpu time spent up to now is        2.0 secs

     total energy              =     -45.57614363 Ry
     estimated scf accuracy    <       0.00000051 Ry

     iteration #  7     ecut=    30.00 Ry     beta= 0.30
     Davidson diagonalization with overlap
     ethr =  3.20E-09,  avg # of iterations =  2.0

     total cpu time spent up to now is        2.1 secs

     total energy              =     -45.57614373 Ry
     estimated scf accuracy    <       0.00000009 Ry

     iteration #  8     ecut=    30.00 Ry     beta= 0.30
     Davidson diagonalization with overlap
     ethr =  5.62E-10,  avg # of iterations =  2.0

     total cpu time spent up to now is        2.1 secs

     total energy              =     -45.57614375 Ry
     estimated scf accuracy    <          8.4E-09 Ry

     iteration #  9     ecut=    30.00 Ry     beta= 0.30
     Davidson diagonalization with overlap
     ethr =  5.22E-11,  avg # of iterations =  2.0

     total cpu time spent up to now is        2.2 secs

     total energy              =     -45.57614376 Ry
     estimated scf accuracy    <          9.2E-10 Ry

     iteration # 10     ecut=    30.00 Ry     beta= 0.30
     Davidson diagonalization with overlap
     ethr =  5.74E-12,  avg # of iterations =  1.8

     total cpu time spent up to now is        2.2 secs

     total energy              =     -45.57614376 Ry
     estimated scf accuracy    <          2.5E-11 Ry

     iteration # 11     ecut=    30.00 Ry     beta= 0.30
     Davidson diagonalization with overlap
     ethr =  1.57E-13,  avg # of iterations =  2.2

     total cpu time spent up to now is        2.2 secs

     End of self-consistent calculation

          k = 0.1252 0.2168 0.0871 (   626 PWs)   bands (ev):

   -12.0305 -11.9018  -0.3577   0.2081   0.2264   0.6302   1.2755   1.2886
    12.3048  14.5735  14.7672  15.4905

     occupation numbers 
     1.0000   1.0000   1.0000   1.0000   1.0000   1.0000   1.0000   1.0000
     0.0000   0.0000   0.0000   0.0000

          k = 0.1252 0.5059 0.0871 (   635 PWs)   bands (ev):

    -8.5008  -8.4055  -5.6001  -5.5292  -1.0173  -0.9831   3.5603   4.1923
     8.4835   8.9139  15.3438  15.5561

     occupation numbers 
     1.0000   1.0000   1.0000   1.0000   1.0000   1.0000   1.0000   1.0000
     0.0000   0.0000   0.0000   0.0000

          k = 0.1252-0.3614 0.0871 (   638 PWs)   bands (ev):

   -10.5806 -10.4646  -2.5900  -2.5421  -0.2483  -0.2197   1.3464   2.2448
    11.4854  11.8286  14.0845  15.6817

     occupation numbers 
     1.0000   1.0000   1.0000   1.0000   1.0000   1.0000   1.0000   1.0000
     0.0000   0.0000   0.0000   0.0000

          k = 0.1252-0.0723 0.0871 (   616 PWs)   bands (ev):

   -12.7668 -12.6315  -1.2407  -0.2176   2.0031   2.0228   2.6778   2.6920
    11.4012  14.7414  14.8823  15.0933

     occupation numbers 
     1.0000   1.0000   1.0000   1.0000   1.0000   1.0000   1.0000   1.0000
     0.0000   0.0000   0.0000   0.0000

          k = 0.3756 0.6505 0.0871 (   638 PWs)   bands (ev):

    -6.8922  -6.8465  -6.0120  -5.9915  -3.3316  -3.2866   5.2235   5.5716
     7.3979   7.4531  17.2130  17.2683

     occupation numbers 
     1.0000   1.0000   1.0000   1.0000   1.0000   1.0000   1.0310   0.9690
     0.0000   0.0000   0.0000   0.0000

          k = 0.3756-0.2168 0.0871 (   632 PWs)   bands (ev):

    -9.8688  -9.7590  -4.2915  -4.2255   0.3588   0.3805   2.1252   2.9476
     9.9954  10.5109  13.9777  14.1257

     occupation numbers 
     1.0000   1.0000   1.0000   1.0000   1.0000   1.0000   1.0000   1.0000
     0.0000   0.0000   0.0000   0.0000

     the Fermi energy is     5.8017 ev

!    total energy              =     -45.57614376 Ry
     estimated scf accuracy    <          1.9E-12 Ry
     smearing contrib. (-TS)   =       0.00065015 Ry
     internal energy E=F+TS    =     -45.57679391 Ry

     The total energy is F=E-TS. E is the sum of the following terms:
     one-electron contribution =     -15.44677296 Ry
     hartree contribution      =      15.28126941 Ry
     xc contribution           =     -14.04907139 Ry
     ewald contribution        =     -31.36221897 Ry

     convergence has been achieved in  11 iterations

     Forces acting on atoms (cartesian axes, Ry/au):

     atom    1 type  1   force =    -0.00000000   -0.00000000    0.00000000
     atom    2 type  1   force =    -0.00000000   -0.00000000   -0.00000000
     atom    3 type  1   force =     0.00000000    0.00000000   -0.00000000
     atom    4 type  1   force =    -0.00000000    0.00000000    0.00000000
     The non-local contrib.  to forces
     atom    1 type  1   force =     0.00000000    0.00000000    0.00000000
     atom    2 type  1   force =    -0.00000000    0.00000000    0.00000000
     atom    3 type  1   force =     0.00000000    0.00000000    0.00000000
     atom    4 type  1   force =     0.00000000   -0.00000000   -0.00000000
     The ionic contribution  to forces
     atom    1 type  1   force =     0.00000855   -0.00000494   -0.00000000
     atom    2 type  1   force =    -0.00000856    0.00000494   -0.00000000
     atom    3 type  1   force =    -0.00000855    0.00000494    0.00000000
     atom    4 type  1   force =     0.00000856   -0.00000494    0.00000000
     The local contribution  to forces
     atom    1 type  1   force =    -0.00000000    0.00000000    0.00000000
     atom    2 type  1   force =    -0.00000801    0.00000462    0.00000000
     atom    3 type  1   force =     0.00000000   -0.00000000    0.00000000
     atom    4 type  1   force =     0.00000801   -0.00000462    0.00000000
     The core correction contribution to forces
     atom    1 type  1   force =     0.00000000    0.00000000    0.00000000
     atom    2 type  1   force =     0.00000000    0.00000000    0.00000000
     atom    3 type  1   force =     0.00000000    0.00000000    0.00000000
     atom    4 type  1   force =     0.00000000    0.00000000    0.00000000
     The Hubbard contrib.    to forces
     atom    1 type  1   force =     0.00000000    0.00000000    0.00000000
     atom    2 type  1   force =     0.00000000    0.00000000    0.00000000
     atom    3 type  1   force =     0.00000000    0.00000000    0.00000000
     atom    4 type  1   force =     0.00000000    0.00000000    0.00000000
     The SCF correction term to forces
     atom    1 type  1   force =     0.00000000   -0.00000000   -0.00000000
     atom    2 type  1   force =     0.00000000   -0.00000000   -0.00000000
     atom    3 type  1   force =    -0.00000000    0.00000000    0.00000000
     atom    4 type  1   force =    -0.00000000    0.00000000    0.00000000

     Total force =     0.000000     Total SCF correction =     0.000000


     Computing stress (Cartesian axis) and pressure

          total   stress  (Ry/bohr**3)                   (kbar)     P=        0.11
  -0.00000160   0.00000000   0.00000000           -0.24        0.00        0.00
   0.00000000  -0.00000160  -0.00000000            0.00       -0.24       -0.00
   0.00000000   0.00000000   0.00000540            0.00        0.00        0.79

     kinetic stress (kbar)  10025.90     -0.00     -0.00
                               -0.00  10025.90      0.00
                                0.00      0.00  11613.07

     local   stress (kbar) -19885.58      0.01      0.00
                                0.01 -19885.57     -0.00
                                0.00     -0.00  26527.37

     nonloc. stress (kbar)   -430.80      0.00     -0.00
                                0.00   -430.80     -0.00
                                0.00     -0.00   -435.30

     hartree stress (kbar)   7996.72      0.00     -0.00
                                0.00   7996.72     -0.00
                               -0.00     -0.00  -7029.29

     exc-cor stress (kbar)  -2532.69      0.00     -0.00
                                0.00  -2532.69     -0.00
                               -0.00     -0.00  -2625.23

     corecor stress (kbar)      0.00      0.00      0.00
                                0.00      0.00      0.00
                                0.00      0.00      0.00

     ewald   stress (kbar)   4826.22     -0.02      0.00
                               -0.02   4826.20     -0.00
                                0.00     -0.00 -28049.82

     hubbard stress (kbar)      0.00      0.00      0.00
                                0.00      0.00      0.00
                                0.00      0.00      0.00

     DFT-D   stress (kbar)      0.00      0.00      0.00
                                0.00      0.00      0.00
                                0.00      0.00      0.00

     XDM     stress (kbar)      0.00      0.00      0.00
                                0.00      0.00      0.00
                                0.00      0.00      0.00

     dft-nl  stress (kbar)      0.00      0.00      0.00
                                0.00      0.00      0.00
                                0.00      0.00      0.00

     TS-vdW  stress (kbar)      0.00      0.00      0.00
                                0.00      0.00      0.00
                                0.00      0.00      0.00


     Energy error            =      3.4E-04
     Gradient error          =      1.6E-22
     Cell gradient error     =      5.4E-06


     number of scf cycles    =   5
     number of bfgs steps    =   4

     enthalpy old            =     -45.5758017925 Ry
     enthalpy new            =     -45.5761437624 Ry

     CASE: enthalpy_new < enthalpy_old

     new trust radius        =       0.0051355037 bohr
     new conv_thr            =            1.0E-11 Ry

     new unit-cell volume =    251.17330 a.u.^3 (    37.22004 Ang^3 )
     density =      2.14344 g/cm^3

CELL_PARAMETERS (alat=  4.66006462)
   0.998490750  -0.000000000   0.000000000
  -0.499245375   0.864718355   0.000000000
   0.000000000  -0.000000000   2.874609990

ATOMIC_POSITIONS (crystal)
C            -0.0000000000        1.0000000000        0.7500000000
C             0.6666670000        0.3333330000        0.7500000000
C            -0.0000000000        1.0000000000        0.2500000000
C             0.3333330000        0.6666670000        0.2500000000



     Writing output data file ./tmp/graphite.save/
     NEW-OLD atomic charge density approx. for the potential
     extrapolated charge   16.02560, renormalised to   16.00000

     total cpu time spent up to now is        2.3 secs

[...]
B_2g   1.00 -1.00  1.00 -1.00 -1.00  1.00  1.00 -1.00  1.00 -1.00 -1.00  1.00
E_1g   2.00  1.00 -1.00 -2.00  0.00  0.00  2.00  1.00 -1.00 -2.00  0.00  0.00
E_2g   2.00 -1.00 -1.00  2.00  0.00  0.00  2.00 -1.00 -1.00  2.00  0.00  0.00
A_1u   1.00  1.00  1.00  1.00  1.00  1.00 -1.00 -1.00 -1.00 -1.00 -1.00 -1.00
A_2u   1.00  1.00  1.00  1.00 -1.00 -1.00 -1.00 -1.00 -1.00 -1.00  1.00  1.00
B_1u   1.00 -1.00  1.00 -1.00  1.00 -1.00 -1.00  1.00 -1.00  1.00 -1.00  1.00
B_2u   1.00 -1.00  1.00 -1.00 -1.00  1.00 -1.00  1.00 -1.00  1.00  1.00 -1.00
E_1u   2.00  1.00 -1.00 -2.00  0.00  0.00 -2.00 -1.00  1.00  2.00  0.00  0.00
E_2u   2.00 -1.00 -1.00  2.00  0.00  0.00 -2.00  1.00  1.00 -2.00  0.00  0.00

     the symmetry operations in each class and the name of the first element:

     E        1
          identity                                               
     2C6      5    6
           60 deg rotation - cryst. axis [0,0,1]                 
     2C3      7    8
          120 deg rotation - cryst. axis [0,0,1]                 
     C2       2
          180 deg rotation - cart. axis [0,0,1]                  
     3C2'     4   12   11
          180 deg rotation - cart. axis [1,0,0]                  
     3C2''    3    9   10
          180 deg rotation - cart. axis [0,1,0]                  
     i       13
          inversion                                              
     2S3     17   18
          inv.  60 deg rotation - cryst. axis [0,0,1]            
     2S6     19   20
          inv. 120 deg rotation - cryst. axis [0,0,1]            
     s_h     14
          inv. 180 deg rotation - cart. axis [0,0,1]             
     3s_d    16   24   23
          inv. 180 deg rotation - cart. axis [1,0,0]             
     3s_v    15   21   22
          inv. 180 deg rotation - cart. axis [0,1,0]             

   Cartesian axes

     site n.     atom                  positions (alat units)
         1           C   tau(   1) = (  -0.4992454   0.8647184   2.1559575  )
         2           C   tau(   2) = (   0.4992459   0.2882392   2.1559575  )
         3           C   tau(   3) = (  -0.4992454   0.8647184   0.7186525  )
         4           C   tau(   4) = (  -0.0000005   0.5764792   0.7186525  )

   Crystallographic axes

     site n.     atom                  positions (cryst. coord.)
         1           C   tau(   1) = ( -0.0000000  1.0000000  0.7500000  )
         2           C   tau(   2) = (  0.6666670  0.3333330  0.7500000  )
         3           C   tau(   3) = ( -0.0000000  1.0000000  0.2500000  )
         4           C   tau(   4) = (  0.3333330  0.6666670  0.2500000  )

     number of k points=     6  Marzari-Vanderbilt smearing, width (Ry)=  0.0200
                       cart. coord. in units 2pi/alat
        k(    1) = (   0.1251889   0.2168336   0.0869683), wk =   0.2500000
        k(    2) = (   0.1251889   0.5059451   0.0869683), wk =   0.5000000
        k(    3) = (   0.1251889  -0.3613893   0.0869683), wk =   0.5000000
        k(    4) = (   0.1251889  -0.0722779   0.0869683), wk =   0.2500000
        k(    5) = (   0.3755668   0.6505008   0.0869683), wk =   0.2500000
        k(    6) = (   0.3755668  -0.2168336   0.0869683), wk =   0.2500000

                       cryst. coord.
        k(    1) = (   0.1250000   0.1250000   0.2500000), wk =   0.2500000
        k(    2) = (   0.1250000   0.3750000   0.2500000), wk =   0.5000000
        k(    3) = (   0.1250000  -0.3750000   0.2500000), wk =   0.5000000
        k(    4) = (   0.1250000  -0.1250000   0.2500000), wk =   0.2500000
        k(    5) = (   0.3750000   0.3750000   0.2500000), wk =   0.2500000
        k(    6) = (   0.3750000  -0.3750000   0.2500000), wk =   0.2500000

     Dense  grid:    15751 G-vectors     FFT dimensions: (  24,  24,  72)

     Smooth grid:     5561 G-vectors     FFT dimensions: (  18,  18,  48)

     Dynamical RAM for                 wfc:       0.02 MB

     Dynamical RAM for     wfc (w. buffer):       0.11 MB

     Dynamical RAM for           str. fact:       0.03 MB

     Dynamical RAM for           local pot:       0.01 MB

     Dynamical RAM for          nlocal pot:       0.04 MB

     Dynamical RAM for                qrad:       0.71 MB

     Dynamical RAM for          rho,v,vnew:       0.21 MB

     Dynamical RAM for               rhoin:       0.07 MB

     Dynamical RAM for            rho*nmix:       0.48 MB

     Dynamical RAM for           G-vectors:       0.12 MB

     Dynamical RAM for          h,s,v(r/c):       0.03 MB

     Dynamical RAM for          <psi|beta>:       0.01 MB

     Dynamical RAM for                 psi:       0.03 MB

     Dynamical RAM for                hpsi:       0.03 MB

     Dynamical RAM for                spsi:       0.03 MB

     Dynamical RAM for      wfcinit/wfcrot:       0.05 MB

     Dynamical RAM for           addusdens:       1.41 MB

     Dynamical RAM for          addusforce:       1.61 MB

     Dynamical RAM for         addusstress:       1.50 MB

     Estimated static dynamical RAM per process >       2.04 MB

     Estimated max dynamical RAM per process >       3.65 MB

     Estimated total dynamical RAM >      29.21 MB

     Initial potential from superposition of free atoms

     starting charge   15.99979, renormalised to   16.00000
     Starting wfcs are   16 randomized atomic wfcs

     total cpu time spent up to now is        2.7 secs

     Self-consistent Calculation

     iteration #  1     ecut=    30.00 Ry     beta= 0.30
     Davidson diagonalization with overlap
     c_bands:  1 eigenvalues not converged
     ethr =  1.00E-06,  avg # of iterations = 14.8

     total cpu time spent up to now is        2.8 secs

     total energy              =     -45.61990257 Ry
     estimated scf accuracy    <       0.39726135 Ry

     iteration #  2     ecut=    30.00 Ry     beta= 0.30
     Davidson diagonalization with overlap
     ethr =  2.48E-03,  avg # of iterations =  1.0

     total cpu time spent up to now is        2.8 secs

     total energy              =     -45.55692746 Ry
     estimated scf accuracy    <       0.13340612 Ry

     iteration #  3     ecut=    30.00 Ry     beta= 0.30
     Davidson diagonalization with overlap
     ethr =  8.34E-04,  avg # of iterations =  3.0

     total cpu time spent up to now is        2.8 secs

     total energy              =     -45.57685444 Ry
     estimated scf accuracy    <       0.00201991 Ry

     iteration #  4     ecut=    30.00 Ry     beta= 0.30
     Davidson diagonalization with overlap
     ethr =  1.26E-05,  avg # of iterations =  6.2

     total cpu time spent up to now is        2.9 secs

     total energy              =     -45.57705132 Ry
     estimated scf accuracy    <       0.00026321 Ry

     iteration #  5     ecut=    30.00 Ry     beta= 0.30
     Davidson diagonalization with overlap
     ethr =  1.65E-06,  avg # of iterations =  2.5

     total cpu time spent up to now is        2.9 secs

     total energy              =     -45.57708429 Ry
     estimated scf accuracy    <       0.00000242 Ry

     iteration #  6     ecut=    30.00 Ry     beta= 0.30
     Davidson diagonalization with overlap
     ethr =  1.51E-08,  avg # of iterations =  2.8

     total cpu time spent up to now is        2.9 secs

     total energy              =     -45.57708593 Ry
     estimated scf accuracy    <       0.00000148 Ry

     iteration #  7     ecut=    30.00 Ry     beta= 0.30
     Davidson diagonalization with overlap
     ethr =  9.22E-09,  avg # of iterations =  2.0

     total cpu time spent up to now is        3.0 secs

     total energy              =     -45.57708628 Ry
     estimated scf accuracy    <       0.00000053 Ry

     iteration #  8     ecut=    30.00 Ry     beta= 0.30
     Davidson diagonalization with overlap
     ethr =  3.29E-09,  avg # of iterations =  2.0

     total cpu time spent up to now is        3.0 secs

     total energy              =     -45.57708645 Ry
     estimated scf accuracy    <          4.7E-10 Ry

     iteration #  9     ecut=    30.00 Ry     beta= 0.30
     Davidson diagonalization with overlap
     ethr =  2.95E-12,  avg # of iterations =  3.3

     total cpu time spent up to now is        3.1 secs

     total energy              =     -45.57708650 Ry
     estimated scf accuracy    <          7.7E-10 Ry

     iteration # 10     ecut=    30.00 Ry     beta= 0.30
     Davidson diagonalization with overlap
     ethr =  2.95E-12,  avg # of iterations =  2.0

     total cpu time spent up to now is        3.1 secs

     total energy              =     -45.57708653 Ry
     estimated scf accuracy    <          1.1E-11 Ry

     iteration # 11     ecut=    30.00 Ry     beta= 0.30
     Davidson diagonalization with overlap
     ethr =  1.00E-13,  avg # of iterations =  2.0

     total cpu time spent up to now is        3.1 secs

     End of self-consistent calculation

          k = 0.1252 0.2168 0.0870 (   692 PWs)   bands (ev):

   -12.0454 -11.9186  -0.3716   0.1926   0.2107   0.6080   1.2599   1.2724
    12.2794  14.5566  14.7482  15.4661

     occupation numbers 
     1.0000   1.0000   1.0000   1.0000   1.0000   1.0000   1.0000   1.0000
     0.0000   0.0000   0.0000   0.0000

          k = 0.1252 0.5059 0.0870 (   703 PWs)   bands (ev):

    -8.5158  -8.4221  -5.6154  -5.5455  -1.0329  -0.9991   3.5451   4.1718
     8.4671   8.8940  15.3295  15.5390

     occupation numbers 
     1.0000   1.0000   1.0000   1.0000   1.0000   1.0000   1.0000   1.0000
     0.0000   0.0000   0.0000   0.0000

          k = 0.1252-0.3614 0.0870 (   700 PWs)   bands (ev):

   -10.5955 -10.4813  -2.6054  -2.5581  -0.2638  -0.2357   1.3322   2.2229
    11.4696  11.8091  14.0605  15.6669

     occupation numbers 
     1.0000   1.0000   1.0000   1.0000   1.0000   1.0000   1.0000   1.0000
     0.0000   0.0000   0.0000   0.0000

          k = 0.1252-0.0723 0.0870 (   677 PWs)   bands (ev):

   -12.7817 -12.6484  -1.2552  -0.2399   1.9875   2.0070   2.6623   2.6761
    11.3751  14.7194  14.8661  15.0570

     occupation numbers 
     1.0000   1.0000   1.0000   1.0000   1.0000   1.0000   1.0000   1.0000
     0.0000   0.0000   0.0000   0.0000

          k = 0.3756 0.6505 0.0870 (   700 PWs)   bands (ev):

    -6.9074  -6.8625  -6.0276  -6.0075  -3.3472  -3.3028   5.2078   5.5525
     7.3805   7.4342  17.1989  17.2522

     occupation numbers 
     1.0000   1.0000   1.0000   1.0000   1.0000   1.0000   1.0321   0.9679
     0.0000   0.0000   0.0000   0.0000

          k = 0.3756-0.2168 0.0870 (   701 PWs)   bands (ev):

    -9.8837  -9.7758  -4.3068  -4.2417   0.3429   0.3645   2.1101   2.9260
     9.9790  10.4908  13.9628  14.1089

     occupation numbers 
     1.0000   1.0000   1.0000   1.0000   1.0000   1.0000   1.0000   1.0000
     0.0000   0.0000   0.0000   0.0000

     the Fermi energy is     5.7819 ev

!    total energy              =     -45.57708656 Ry
     estimated scf accuracy    <          4.0E-12 Ry
     smearing contrib. (-TS)   =       0.00065732 Ry
     internal energy E=F+TS    =     -45.57774387 Ry

     The total energy is F=E-TS. E is the sum of the following terms:
     one-electron contribution =     -15.58504814 Ry
     hartree contribution      =      15.34073902 Ry
     xc contribution           =     -14.04890651 Ry
     ewald contribution        =     -31.28452825 Ry

     convergence has been achieved in  11 iterations

     Forces acting on atoms (cartesian axes, Ry/au):

     atom    1 type  1   force =    -0.00000000   -0.00000000    0.00000000
     atom    2 type  1   force =     0.00000000    0.00000000   -0.00000000
     atom    3 type  1   force =    -0.00000000   -0.00000000    0.00000000
     atom    4 type  1   force =    -0.00000000   -0.00000000   -0.00000000
     The non-local contrib.  to forces
     atom    1 type  1   force =     0.00000000    0.00000000    0.00000000
     atom    2 type  1   force =     0.00000000    0.00000000    0.00000000
     atom    3 type  1   force =     0.00000000    0.00000000    0.00000000
     atom    4 type  1   force =     0.00000000    0.00000000    0.00000000
     The ionic contribution  to forces
     atom    1 type  1   force =     0.00000855   -0.00000494   -0.00000000
     atom    2 type  1   force =    -0.00000856    0.00000494   -0.00000000
     atom    3 type  1   force =    -0.00000855    0.00000494    0.00000000
     atom    4 type  1   force =     0.00000856   -0.00000494    0.00000000
     The local contribution  to forces
     atom    1 type  1   force =    -0.00000000    0.00000000    0.00000000
     atom    2 type  1   force =    -0.00000800    0.00000462    0.00000000
     atom    3 type  1   force =     0.00000000   -0.00000000    0.00000000
     atom    4 type  1   force =     0.00000800   -0.00000462    0.00000000
     The core correction contribution to forces
     atom    1 type  1   force =     0.00000000    0.00000000    0.00000000
     atom    2 type  1   force =     0.00000000    0.00000000    0.00000000
     atom    3 type  1   force =     0.00000000    0.00000000    0.00000000
     atom    4 type  1   force =     0.00000000    0.00000000    0.00000000
     The Hubbard contrib.    to forces
     atom    1 type  1   force =     0.00000000    0.00000000    0.00000000
     atom    2 type  1   force =     0.00000000    0.00000000    0.00000000
     atom    3 type  1   force =     0.00000000    0.00000000    0.00000000
     atom    4 type  1   force =     0.00000000    0.00000000    0.00000000
     The SCF correction term to forces
     atom    1 type  1   force =    -0.00000000    0.00000000    0.00000000
     atom    2 type  1   force =     0.00000000   -0.00000000    0.00000000
     atom    3 type  1   force =     0.00000000   -0.00000000   -0.00000000
     atom    4 type  1   force =    -0.00000000    0.00000000   -0.00000000

     Total force =     0.000000     Total SCF correction =     0.000000


     Computing stress (Cartesian axis) and pressure

          total   stress  (Ry/bohr**3)                   (kbar)     P=        5.92
   0.00001415  -0.00000000  -0.00000000            2.08       -0.00       -0.00
  -0.00000000   0.00001415   0.00000000           -0.00        2.08        0.00
  -0.00000000  -0.00000000   0.00009237           -0.00       -0.00       13.59

     kinetic stress (kbar)  10007.14     -0.00     -0.00
                               -0.00  10007.14      0.00
                               -0.00      0.00  11591.10

     local   stress (kbar) -19931.42      0.01      0.00
                                0.01 -19931.41     -0.00
                                0.00     -0.00  26572.95

     nonloc. stress (kbar)   -427.84      0.00     -0.00
                                0.00   -427.84     -0.00
                               -0.00     -0.00   -426.03

     hartree stress (kbar)   8018.65      0.00      0.00
                                0.00   8018.65      0.00
                                0.00      0.00  -7052.66

     exc-cor stress (kbar)  -2528.60      0.00      0.00
                                0.00  -2528.60      0.00
                                0.00      0.00  -2621.02

     corecor stress (kbar)      0.00      0.00      0.00
                                0.00      0.00      0.00
                                0.00      0.00      0.00

     ewald   stress (kbar)   4864.16     -0.02     -0.00
                               -0.02   4864.13     -0.00
                               -0.00     -0.00 -28050.75

     hubbard stress (kbar)      0.00      0.00      0.00
                                0.00      0.00      0.00
                                0.00      0.00      0.00

     DFT-D   stress (kbar)      0.00      0.00      0.00
                                0.00      0.00      0.00
                                0.00      0.00      0.00

     XDM     stress (kbar)      0.00      0.00      0.00
                                0.00      0.00      0.00
                                0.00      0.00      0.00

     dft-nl  stress (kbar)      0.00      0.00      0.00
                                0.00      0.00      0.00
                                0.00      0.00      0.00

     TS-vdW  stress (kbar)      0.00      0.00      0.00
                                0.00      0.00      0.00
                                0.00      0.00      0.00



     Writing output data file ./tmp/graphite.save/
 
     init_run     :      0.10s CPU      0.11s WALL (       2 calls)
     electrons    :      2.31s CPU      2.64s WALL (       7 calls)
     update_pot   :      0.10s CPU      0.11s WALL (       5 calls)
     forces       :      0.06s CPU      0.07s WALL (       7 calls)
     stress       :      0.14s CPU      0.14s WALL (       7 calls)

     Called by init_run:
     wfcinit      :      0.02s CPU      0.02s WALL (       2 calls)
     wfcinit:atom :      0.00s CPU      0.00s WALL (      12 calls)
     wfcinit:wfcr :      0.02s CPU      0.02s WALL (      12 calls)
     potinit      :      0.02s CPU      0.02s WALL (       2 calls)
     hinit0       :      0.04s CPU      0.05s WALL (       2 calls)

     Called by electrons:
     c_bands      :      1.71s CPU      1.95s WALL (      71 calls)
     sum_band     :      0.35s CPU      0.41s WALL (      71 calls)
     v_of_rho     :      0.15s CPU      0.18s WALL (      77 calls)
     v_h          :      0.01s CPU      0.01s WALL (      77 calls)
     v_xc         :      0.14s CPU      0.17s WALL (      77 calls)
     newd         :      0.06s CPU      0.07s WALL (      77 calls)
     mix_rho      :      0.02s CPU      0.03s WALL (      71 calls)

     Called by c_bands:
     init_us_2    :      0.02s CPU      0.02s WALL (     948 calls)
     cegterg      :      1.66s CPU      1.89s WALL (     426 calls)

     Called by sum_band:
     sum_band:wei :      0.00s CPU      0.00s WALL (      71 calls)
     sum_band:loo :      0.26s CPU      0.29s WALL (      71 calls)
     sum_band:buf :      0.00s CPU      0.00s WALL (     426 calls)
     sum_band:ini :      0.01s CPU      0.01s WALL (     426 calls)
     sum_band:cal :      0.02s CPU      0.02s WALL (     426 calls)
     sum_band:bec :      0.00s CPU      0.00s WALL (     426 calls)
     addusdens    :      0.06s CPU      0.07s WALL (      71 calls)
     addusd:skk   :      0.00s CPU      0.00s WALL (      71 calls)
     addusd:dgemm :      0.01s CPU      0.02s WALL (      71 calls)
     addusd:qvan2 :      0.03s CPU      0.03s WALL (      71 calls)

     Called by *egterg:
     cdiaghg      :      0.21s CPU      0.24s WALL (    1560 calls)
     cegterg:over :      0.05s CPU      0.06s WALL (    1170 calls)
     cegterg:upda :      0.01s CPU      0.01s WALL (    1170 calls)
     cegterg:last :      0.01s CPU      0.02s WALL (     900 calls)
     h_psi        :      1.32s CPU      1.50s WALL (    1608 calls)
     s_psi        :      0.02s CPU      0.02s WALL (    1608 calls)
     g_psi        :      0.01s CPU      0.01s WALL (    1170 calls)

     Called by h_psi:
     h_psi:calbec :      0.05s CPU      0.06s WALL (    1608 calls)
     vloc_psi     :      1.24s CPU      1.41s WALL (    1608 calls)
     add_vuspsi   :      0.02s CPU      0.02s WALL (    1608 calls)

     General routines
     calbec       :      0.07s CPU      0.08s WALL (    2244 calls)
     fft          :      0.11s CPU      0.13s WALL (    1049 calls)
     ffts         :      0.01s CPU      0.01s WALL (     148 calls)
     fftw         :      1.39s CPU      1.58s WALL (   33480 calls)
     interpolate  :      0.01s CPU      0.01s WALL (      77 calls)
 
     Parallel routines
     fft_scatt_xy :      0.10s CPU      0.11s WALL (   34677 calls)
     fft_scatt_yz :      0.74s CPU      0.85s WALL (   34677 calls)
 
     PWSCF        :      2.79s CPU      3.18s WALL

 
   This run was terminated on:  17:52: 4  16Apr2021            

=------------------------------------------------------------------------------=
   JOB DONE.
=------------------------------------------------------------------------------=
