
     Program PWSCF v.6.7MaX starts on 16Apr2021 at 17:44:39 

     This program is part of the open-source Quantum ESPRESSO suite
     for quantum simulation of materials; please cite
         "P. Giannozzi et al., J. Phys.:Condens. Matter 21 395502 (2009);
         "P. Giannozzi et al., J. Phys.:Condens. Matter 29 465901 (2017);
          URL http://www.quantum-espresso.org", 
     in publications or presentations arising from this work. More details at
     http://www.quantum-espresso.org/quote

     Parallel version (MPI), running on     8 processors

     MPI processes distributed on     1 nodes
     R & G space division:  proc/nbgrp/npool/nimage =       8
     Waiting for input...
     Reading input from standard input

     Current dimensions of program PWSCF are:
     Max number of different atomic species (ntypx) = 10
     Max number of k-points (npk) =  40000
     Max angular momentum in pseudopotentials (lmaxx) =  3
     file C.pbe-rrkjus.UPF: wavefunction(s)  2S 2P renormalized

     IMPORTANT: XC functional enforced from input :
     Exchange-correlation= VDW-DF2
                           (   1   4  13   0   2   0   0)
     Any further DFT definition will be discarded
     Please, verify this is what you really want


     Subspace diagonalization in iterative solution of the eigenvalue problem:
     a serial algorithm will be used

 
     Parallelization info
     --------------------
     sticks:   dense  smooth     PW     G-vecs:    dense   smooth      PW
     Min          45      22      7                 1787      630     127
     Max          46      24      8                 1796      634     134
     Sum         361     187     61                14339     5053    1045
 


     bravais-lattice index     =            4
     lattice parameter (alat)  =       4.6601  a.u.
     unit-cell volume          =     227.8448 (a.u.)^3
     number of atoms/cell      =            4
     number of atomic types    =            1
     number of electrons       =        16.00
     number of Kohn-Sham states=           12
     kinetic-energy cutoff     =      30.0000  Ry
     charge density cutoff     =     240.0000  Ry
     scf convergence threshold =      1.0E-09
     mixing beta               =       0.3000
     number of iterations used =            8  plain     mixing
     energy convergence thresh.=      1.0E-05
     force convergence thresh. =      1.0E-04
     press convergence thresh. =      5.0E-01
     Exchange-correlation= VDW-DF2
                           (   1   4  13   0   2   0   0)
     nstep                     =           50


     celldm(1)=   4.660065  celldm(2)=   0.000000  celldm(3)=   2.599757
     celldm(4)=   0.000000  celldm(5)=   0.000000  celldm(6)=   0.000000

     crystal axes: (cart. coord. in units of alat)
               a(1) = (   1.000000   0.000000   0.000000 )  
               a(2) = (  -0.500000   0.866025   0.000000 )  
               a(3) = (   0.000000   0.000000   2.599757 )  

     reciprocal axes: (cart. coord. in units 2 pi/alat)
               b(1) = (  1.000000  0.577350  0.000000 )  
               b(2) = (  0.000000  1.154701  0.000000 )  
               b(3) = (  0.000000  0.000000  0.384651 )  


     PseudoPot. # 1 for C  read from file:
     ../../pseudo/C.pbe-rrkjus.UPF
     MD5 check sum: 00fb224312de0c5b6853bd333518df6f
     Pseudo is Ultrasoft, Zval =  4.0
     Generated by new atomic code, or converted to UPF format
     Using radial grid of  627 points,  4 beta functions with: 
                l(1) =   0
                l(2) =   0
                l(3) =   1
                l(4) =   1
     Q(r) pseudized with 0 coefficients 


     atomic species   valence    mass     pseudopotential
        C              4.00    12.01100     C ( 1.00)

     24 Sym. Ops., with inversion, found (12 have fractional translation)


                                    s                        frac. trans.

      isym =  1     identity                                     

 cryst.   s( 1) = (     1          0          0      )
                  (     0          1          0      )
                  (     0          0          1      )

 cart.    s( 1) = (  1.0000000  0.0000000  0.0000000 )
                  (  0.0000000  1.0000000  0.0000000 )
                  (  0.0000000  0.0000000  1.0000000 )


      isym =  2     180 deg rotation - cart. axis [0,0,1]        

 cryst.   s( 2) = (    -1          0          0      )    f =(  0.0000000 )
                  (     0         -1          0      )       (  0.0000000 )
                  (     0          0          1      )       (  0.5000000 )

 cart.    s( 2) = ( -1.0000000  0.0000000  0.0000000 )    f =(  0.0000000 )
                  (  0.0000000 -1.0000000  0.0000000 )       (  0.0000000 )
                  (  0.0000000  0.0000000  1.0000000 )       (  1.2998783 )


      isym =  3     180 deg rotation - cart. axis [0,1,0]        

 cryst.   s( 3) = (    -1          0          0      )    f =(  0.0000000 )
                  (     1          1          0      )       (  0.0000000 )
                  (     0          0         -1      )       (  0.5000000 )

 cart.    s( 3) = ( -1.0000000  0.0000000  0.0000000 )    f =(  0.0000000 )
                  (  0.0000000  1.0000000  0.0000000 )       (  0.0000000 )
                  (  0.0000000  0.0000000 -1.0000000 )       (  1.2998783 )


      isym =  4     180 deg rotation - cart. axis [1,0,0]        

 cryst.   s( 4) = (     1          0          0      )
                  (    -1         -1          0      )
                  (     0          0         -1      )

 cart.    s( 4) = (  1.0000000  0.0000000  0.0000000 )
                  (  0.0000000 -1.0000000  0.0000000 )
                  (  0.0000000  0.0000000 -1.0000000 )


      isym =  5      60 deg rotation - cryst. axis [0,0,1]       

 cryst.   s( 5) = (     1          1          0      )    f =(  0.0000000 )
                  (    -1          0          0      )       (  0.0000000 )
                  (     0          0          1      )       (  0.5000000 )

 cart.    s( 5) = (  0.5000000 -0.8660254  0.0000000 )    f =(  0.0000000 )
                  (  0.8660254  0.5000000  0.0000000 )       (  0.0000000 )
                  (  0.0000000  0.0000000  1.0000000 )       (  1.2998783 )


      isym =  6      60 deg rotation - cryst. axis [0,0,-1]      

 cryst.   s( 6) = (     0         -1          0      )    f =(  0.0000000 )
                  (     1          1          0      )       (  0.0000000 )
                  (     0          0          1      )       (  0.5000000 )

 cart.    s( 6) = (  0.5000000  0.8660254  0.0000000 )    f =(  0.0000000 )
                  ( -0.8660254  0.5000000  0.0000000 )       (  0.0000000 )
                  (  0.0000000  0.0000000  1.0000000 )       (  1.2998783 )


      isym =  7     120 deg rotation - cryst. axis [0,0,1]       

 cryst.   s( 7) = (     0          1          0      )
                  (    -1         -1          0      )
                  (     0          0          1      )

 cart.    s( 7) = ( -0.5000000 -0.8660254  0.0000000 )
                  (  0.8660254 -0.5000000  0.0000000 )
                  (  0.0000000  0.0000000  1.0000000 )


      isym =  8     120 deg rotation - cryst. axis [0,0,-1]      

 cryst.   s( 8) = (    -1         -1          0      )
                  (     1          0          0      )
                  (     0          0          1      )

 cart.    s( 8) = ( -0.5000000  0.8660254  0.0000000 )
                  ( -0.8660254 -0.5000000  0.0000000 )
                  (  0.0000000  0.0000000  1.0000000 )


      isym =  9     180 deg rotation - cryst. axis [1,-1,0]      

 cryst.   s( 9) = (     0         -1          0      )    f =(  0.0000000 )
                  (    -1          0          0      )       (  0.0000000 )
                  (     0          0         -1      )       (  0.5000000 )

 cart.    s( 9) = (  0.5000000 -0.8660254  0.0000000 )    f =(  0.0000000 )
                  ( -0.8660254 -0.5000000  0.0000000 )       (  0.0000000 )
                  (  0.0000000  0.0000000 -1.0000000 )       (  1.2998783 )


      isym = 10     180 deg rotation - cryst. axis [2,1,0]       

 cryst.   s(10) = (     1          1          0      )    f =(  0.0000000 )
                  (     0         -1          0      )       (  0.0000000 )
                  (     0          0         -1      )       (  0.5000000 )

 cart.    s(10) = (  0.5000000  0.8660254  0.0000000 )    f =(  0.0000000 )
                  (  0.8660254 -0.5000000  0.0000000 )       (  0.0000000 )
                  (  0.0000000  0.0000000 -1.0000000 )       (  1.2998783 )


      isym = 11     180 deg rotation - cryst. axis [0,1,0]       

 cryst.   s(11) = (    -1         -1          0      )
                  (     0          1          0      )
                  (     0          0         -1      )

 cart.    s(11) = ( -0.5000000 -0.8660254  0.0000000 )
                  ( -0.8660254  0.5000000  0.0000000 )
                  (  0.0000000  0.0000000 -1.0000000 )


      isym = 12     180 deg rotation - cryst. axis [1,1,0]       

 cryst.   s(12) = (     0          1          0      )
                  (     1          0          0      )
                  (     0          0         -1      )

 cart.    s(12) = ( -0.5000000  0.8660254  0.0000000 )
                  (  0.8660254  0.5000000  0.0000000 )
                  (  0.0000000  0.0000000 -1.0000000 )


      isym = 13     inversion                                    

 cryst.   s(13) = (    -1          0          0      )
                  (     0         -1          0      )
                  (     0          0         -1      )

 cart.    s(13) = ( -1.0000000  0.0000000  0.0000000 )
                  (  0.0000000 -1.0000000  0.0000000 )
                  (  0.0000000  0.0000000 -1.0000000 )


      isym = 14     inv. 180 deg rotation - cart. axis [0,0,1]   

 cryst.   s(14) = (     1          0          0      )    f =(  0.0000000 )
                  (     0          1          0      )       (  0.0000000 )
                  (     0          0         -1      )       (  0.5000000 )

 cart.    s(14) = (  1.0000000  0.0000000  0.0000000 )    f =(  0.0000000 )
                  (  0.0000000  1.0000000  0.0000000 )       (  0.0000000 )
                  (  0.0000000  0.0000000 -1.0000000 )       (  1.2998783 )


      isym = 15     inv. 180 deg rotation - cart. axis [0,1,0]   

 cryst.   s(15) = (     1          0          0      )    f =(  0.0000000 )
                  (    -1         -1          0      )       (  0.0000000 )
                  (     0          0          1      )       (  0.5000000 )

 cart.    s(15) = (  1.0000000  0.0000000  0.0000000 )    f =(  0.0000000 )
                  (  0.0000000 -1.0000000  0.0000000 )       (  0.0000000 )
                  (  0.0000000  0.0000000  1.0000000 )       (  1.2998783 )


      isym = 16     inv. 180 deg rotation - cart. axis [1,0,0]   

 cryst.   s(16) = (    -1          0          0      )
                  (     1          1          0      )
                  (     0          0          1      )

 cart.    s(16) = ( -1.0000000  0.0000000  0.0000000 )
                  (  0.0000000  1.0000000  0.0000000 )
                  (  0.0000000  0.0000000  1.0000000 )


      isym = 17     inv.  60 deg rotation - cryst. axis [0,0,1]  

 cryst.   s(17) = (    -1         -1          0      )    f =(  0.0000000 )
                  (     1          0          0      )       (  0.0000000 )
                  (     0          0         -1      )       (  0.5000000 )

 cart.    s(17) = ( -0.5000000  0.8660254  0.0000000 )    f =(  0.0000000 )
                  ( -0.8660254 -0.5000000  0.0000000 )       (  0.0000000 )
                  (  0.0000000  0.0000000 -1.0000000 )       (  1.2998783 )


      isym = 18     inv.  60 deg rotation - cryst. axis [0,0,-1] 

 cryst.   s(18) = (     0          1          0      )    f =(  0.0000000 )
                  (    -1         -1          0      )       (  0.0000000 )
                  (     0          0         -1      )       (  0.5000000 )

 cart.    s(18) = ( -0.5000000 -0.8660254  0.0000000 )    f =(  0.0000000 )
                  (  0.8660254 -0.5000000  0.0000000 )       (  0.0000000 )
                  (  0.0000000  0.0000000 -1.0000000 )       (  1.2998783 )


      isym = 19     inv. 120 deg rotation - cryst. axis [0,0,1]  

 cryst.   s(19) = (     0         -1          0      )
                  (     1          1          0      )
                  (     0          0         -1      )

 cart.    s(19) = (  0.5000000  0.8660254  0.0000000 )
                  ( -0.8660254  0.5000000  0.0000000 )
                  (  0.0000000  0.0000000 -1.0000000 )


      isym = 20     inv. 120 deg rotation - cryst. axis [0,0,-1] 

 cryst.   s(20) = (     1          1          0      )
                  (    -1          0          0      )
                  (     0          0         -1      )

 cart.    s(20) = (  0.5000000 -0.8660254  0.0000000 )
                  (  0.8660254  0.5000000  0.0000000 )
                  (  0.0000000  0.0000000 -1.0000000 )


      isym = 21     inv. 180 deg rotation - cryst. axis [1,-1,0] 

 cryst.   s(21) = (     0          1          0      )    f =(  0.0000000 )
                  (     1          0          0      )       (  0.0000000 )
                  (     0          0          1      )       (  0.5000000 )

 cart.    s(21) = ( -0.5000000  0.8660254  0.0000000 )    f =(  0.0000000 )
                  (  0.8660254  0.5000000  0.0000000 )       (  0.0000000 )
                  (  0.0000000  0.0000000  1.0000000 )       (  1.2998783 )


      isym = 22     inv. 180 deg rotation - cryst. axis [2,1,0]  

 cryst.   s(22) = (    -1         -1          0      )    f =(  0.0000000 )
                  (     0          1          0      )       (  0.0000000 )
                  (     0          0          1      )       (  0.5000000 )

 cart.    s(22) = ( -0.5000000 -0.8660254  0.0000000 )    f =(  0.0000000 )
                  ( -0.8660254  0.5000000  0.0000000 )       (  0.0000000 )
                  (  0.0000000  0.0000000  1.0000000 )       (  1.2998783 )


      isym = 23     inv. 180 deg rotation - cryst. axis [0,1,0]  

 cryst.   s(23) = (     1          1          0      )
                  (     0         -1          0      )
                  (     0          0          1      )

 cart.    s(23) = (  0.5000000  0.8660254  0.0000000 )
                  (  0.8660254 -0.5000000  0.0000000 )
                  (  0.0000000  0.0000000  1.0000000 )


      isym = 24     inv. 180 deg rotation - cryst. axis [1,1,0]  

 cryst.   s(24) = (     0         -1          0      )
                  (    -1          0          0      )
                  (     0          0          1      )

 cart.    s(24) = (  0.5000000 -0.8660254  0.0000000 )
                  ( -0.8660254 -0.5000000  0.0000000 )
                  (  0.0000000  0.0000000  1.0000000 )


     point group D_6h(6/mmm)
     there are 12 classes
     the character table:

       E     2C6   2C3   C2    3C2'  3C2'' i     2S3   2S6   s_h   3s_d  3s_v 
A_1g   1.00  1.00  1.00  1.00  1.00  1.00  1.00  1.00  1.00  1.00  1.00  1.00
A_2g   1.00  1.00  1.00  1.00 -1.00 -1.00  1.00  1.00  1.00  1.00 -1.00 -1.00
B_1g   1.00 -1.00  1.00 -1.00  1.00 -1.00  1.00 -1.00  1.00 -1.00  1.00 -1.00
B_2g   1.00 -1.00  1.00 -1.00 -1.00  1.00  1.00 -1.00  1.00 -1.00 -1.00  1.00
E_1g   2.00  1.00 -1.00 -2.00  0.00  0.00  2.00  1.00 -1.00 -2.00  0.00  0.00
E_2g   2.00 -1.00 -1.00  2.00  0.00  0.00  2.00 -1.00 -1.00  2.00  0.00  0.00
A_1u   1.00  1.00  1.00  1.00  1.00  1.00 -1.00 -1.00 -1.00 -1.00 -1.00 -1.00
A_2u   1.00  1.00  1.00  1.00 -1.00 -1.00 -1.00 -1.00 -1.00 -1.00  1.00  1.00
B_1u   1.00 -1.00  1.00 -1.00  1.00 -1.00 -1.00  1.00 -1.00  1.00 -1.00  1.00
B_2u   1.00 -1.00  1.00 -1.00 -1.00  1.00 -1.00  1.00 -1.00  1.00  1.00 -1.00
E_1u   2.00  1.00 -1.00 -2.00  0.00  0.00 -2.00 -1.00  1.00  2.00  0.00  0.00
E_2u   2.00 -1.00 -1.00  2.00  0.00  0.00 -2.00  1.00  1.00 -2.00  0.00  0.00

     the symmetry operations in each class and the name of the first element:

     E        1
          identity                                               
     2C6      5    6
           60 deg rotation - cryst. axis [0,0,1]                 
     2C3      7    8
          120 deg rotation - cryst. axis [0,0,1]                 
     C2       2
          180 deg rotation - cart. axis [0,0,1]                  
     3C2'     4   12   11
          180 deg rotation - cart. axis [1,0,0]                  
     3C2''    3    9   10
          180 deg rotation - cart. axis [0,1,0]                  
     i       13
          inversion                                              
     2S3     17   18
          inv.  60 deg rotation - cryst. axis [0,0,1]            
     2S6     19   20
          inv. 120 deg rotation - cryst. axis [0,0,1]            
     s_h     14
          inv. 180 deg rotation - cart. axis [0,0,1]             
     3s_d    16   24   23
          inv. 180 deg rotation - cart. axis [1,0,0]             
     3s_v    15   21   22
          inv. 180 deg rotation - cart. axis [0,1,0]             

   Cartesian axes

     site n.     atom                  positions (alat units)
         1           C   tau(   1) = (  -0.5000000   0.8660254   1.9498175  )
         2           C   tau(   2) = (   0.5000005   0.2886748   1.9498175  )
         3           C   tau(   3) = (  -0.5000000   0.8660254   0.6499392  )
         4           C   tau(   4) = (  -0.0000005   0.5773506   0.6499392  )

   Crystallographic axes

     site n.     atom                  positions (cryst. coord.)
         1           C   tau(   1) = (  0.0000000  1.0000000  0.7500000  )
         2           C   tau(   2) = (  0.6666670  0.3333330  0.7500000  )
         3           C   tau(   3) = (  0.0000000  1.0000000  0.2500000  )
         4           C   tau(   4) = (  0.3333330  0.6666670  0.2500000  )

     number of k points=     6  Marzari-Vanderbilt smearing, width (Ry)=  0.0200
                       cart. coord. in units 2pi/alat
        k(    1) = (   0.1250000   0.2165064   0.0961628), wk =   0.2500000
        k(    2) = (   0.1250000   0.5051815   0.0961628), wk =   0.5000000
        k(    3) = (   0.1250000  -0.3608439   0.0961628), wk =   0.5000000
        k(    4) = (   0.1250000  -0.0721688   0.0961628), wk =   0.2500000
        k(    5) = (   0.3750000   0.6495191   0.0961628), wk =   0.2500000
        k(    6) = (   0.3750000  -0.2165064   0.0961628), wk =   0.2500000

                       cryst. coord.
        k(    1) = (   0.1250000   0.1250000   0.2500000), wk =   0.2500000
        k(    2) = (   0.1250000   0.3750000   0.2500000), wk =   0.5000000
        k(    3) = (   0.1250000  -0.3750000   0.2500000), wk =   0.5000000
        k(    4) = (   0.1250000  -0.1250000   0.2500000), wk =   0.2500000
        k(    5) = (   0.3750000   0.3750000   0.2500000), wk =   0.2500000
        k(    6) = (   0.3750000  -0.3750000   0.2500000), wk =   0.2500000

     Dense  grid:    14339 G-vectors     FFT dimensions: (  24,  24,  60)

     Smooth grid:     5053 G-vectors     FFT dimensions: (  18,  18,  48)

     Dynamical RAM for                 wfc:       0.01 MB

     Dynamical RAM for     wfc (w. buffer):       0.10 MB

     Dynamical RAM for           str. fact:       0.03 MB

     Dynamical RAM for           local pot:       0.00 MB

     Dynamical RAM for          nlocal pot:       0.04 MB

     Dynamical RAM for                qrad:       0.71 MB

     Dynamical RAM for          rho,v,vnew:       0.19 MB

     Dynamical RAM for               rhoin:       0.06 MB

     Dynamical RAM for            rho*nmix:       0.44 MB

     Dynamical RAM for           G-vectors:       0.11 MB

     Dynamical RAM for          h,s,v(r/c):       0.03 MB

     Dynamical RAM for          <psi|beta>:       0.01 MB

     Dynamical RAM for                 psi:       0.03 MB

     Dynamical RAM for                hpsi:       0.03 MB

     Dynamical RAM for                spsi:       0.03 MB

     Dynamical RAM for      wfcinit/wfcrot:       0.04 MB

     Dynamical RAM for           addusdens:       1.29 MB

     Dynamical RAM for          addusforce:       1.47 MB

     Dynamical RAM for         addusstress:       1.37 MB

     Estimated static dynamical RAM per process >       1.90 MB

     Estimated max dynamical RAM per process >       3.37 MB

     Estimated total dynamical RAM >      26.97 MB

     Initial potential from superposition of free atoms

     starting charge   15.99979, renormalised to   16.00000


     %%%%%%%%%%%%%%%%%%%%%%%%%%%%%%%%%%%%%%%%%%%%%%%%%%%%%%%%%%%%%%%%%%%%%%%%
     %                                                                      %
     % You are using vdW-DF, which was implemented by the Thonhauser group. %
     % Please cite the following two papers that made this development      %
     % possible and the two reviews that describe the various versions:     %
     %                                                                      %
     %   T. Thonhauser et al., PRL 115, 136402 (2015).                      %
     %   T. Thonhauser et al., PRB 76, 125112 (2007).                       %
     %   K. Berland et al., Rep. Prog. Phys. 78, 066501 (2015).             %
     %   D.C. Langreth et al., J. Phys.: Condens. Matter 21, 084203 (2009). %
     %                                                                      %
     %                                                                      %
     % If you are calculating the stress with vdW-DF, please also cite:     %
     %                                                                      %
     %   R. Sabatini et al., J. Phys.: Condens. Matter 24, 424209 (2012).   %
     %                                                                      %
     %%%%%%%%%%%%%%%%%%%%%%%%%%%%%%%%%%%%%%%%%%%%%%%%%%%%%%%%%%%%%%%%%%%%%%%%


     Carrying out vdW-DF run using the following parameters:
     Nqs    =  20  Npoints =  1024  r_max =  100.000
     q_mesh =  0.00001000  0.04494208  0.09755937  0.15916263
               0.23128650  0.31572767  0.41458969  0.53033537
               0.66584808  0.82450364  1.01025438  1.22772762
               1.48234092  1.78043706  2.12944203  2.53805004
               3.01644009  3.57652955  4.23227104  5.00000000


     -----------------------------------------------
     Non-local corr. energy    =       0.11104074 Ry
     -----------------------------------------------

     Starting wfcs are   16 randomized atomic wfcs

     total cpu time spent up to now is       16.3 secs

     Self-consistent Calculation

     iteration #  1     ecut=    30.00 Ry     beta= 0.30
     Davidson diagonalization with overlap
     ethr =  1.00E-02,  avg # of iterations =  2.5


     -----------------------------------------------
     Non-local corr. energy    =       0.12358509 Ry
     -----------------------------------------------


     total cpu time spent up to now is       16.4 secs

     total energy              =     -46.03914935 Ry
     estimated scf accuracy    <       0.42949877 Ry

     iteration #  2     ecut=    30.00 Ry     beta= 0.30
     Davidson diagonalization with overlap
     ethr =  2.68E-03,  avg # of iterations =  1.0


     -----------------------------------------------
     Non-local corr. energy    =       0.14442816 Ry
     -----------------------------------------------


     total cpu time spent up to now is       16.4 secs

     total energy              =     -45.95988413 Ry
     estimated scf accuracy    <       0.15896535 Ry

     iteration #  3     ecut=    30.00 Ry     beta= 0.30
     Davidson diagonalization with overlap
     ethr =  9.94E-04,  avg # of iterations =  3.5


     -----------------------------------------------
     Non-local corr. energy    =       0.13626453 Ry
     -----------------------------------------------


     total cpu time spent up to now is       16.5 secs

     total energy              =     -45.99022703 Ry
     estimated scf accuracy    <       0.00459700 Ry

     iteration #  4     ecut=    30.00 Ry     beta= 0.30
     Davidson diagonalization with overlap
     ethr =  2.87E-05,  avg # of iterations =  4.5


     -----------------------------------------------
     Non-local corr. energy    =       0.14194956 Ry
     -----------------------------------------------


     total cpu time spent up to now is       16.6 secs

     total energy              =     -45.98695226 Ry
     estimated scf accuracy    <       0.01169796 Ry

     iteration #  5     ecut=    30.00 Ry     beta= 0.30
     Davidson diagonalization with overlap
     ethr =  2.87E-05,  avg # of iterations =  2.7


     -----------------------------------------------
     Non-local corr. energy    =       0.14182211 Ry
     -----------------------------------------------


     total cpu time spent up to now is       16.6 secs

     total energy              =     -45.98893420 Ry
     estimated scf accuracy    <       0.00000562 Ry

     iteration #  6     ecut=    30.00 Ry     beta= 0.30
     Davidson diagonalization with overlap
     ethr =  3.51E-08,  avg # of iterations =  4.7


     -----------------------------------------------
     Non-local corr. energy    =       0.14195546 Ry
     -----------------------------------------------


     total cpu time spent up to now is       16.7 secs

     total energy              =     -45.98893826 Ry
     estimated scf accuracy    <       0.00000193 Ry

     iteration #  7     ecut=    30.00 Ry     beta= 0.30
     Davidson diagonalization with overlap
     ethr =  1.20E-08,  avg # of iterations =  2.0


     -----------------------------------------------
     Non-local corr. energy    =       0.14193240 Ry
     -----------------------------------------------


     total cpu time spent up to now is       16.7 secs

     total energy              =     -45.98893941 Ry
     estimated scf accuracy    <       0.00000083 Ry

     iteration #  8     ecut=    30.00 Ry     beta= 0.30
     Davidson diagonalization with overlap
     ethr =  5.20E-09,  avg # of iterations =  1.0


     -----------------------------------------------
     Non-local corr. energy    =       0.14191295 Ry
     -----------------------------------------------


     total cpu time spent up to now is       16.8 secs

     total energy              =     -45.98893950 Ry
     estimated scf accuracy    <       0.00000030 Ry

     iteration #  9     ecut=    30.00 Ry     beta= 0.30
     Davidson diagonalization with overlap
     ethr =  1.87E-09,  avg # of iterations =  2.0


     -----------------------------------------------
     Non-local corr. energy    =       0.14190884 Ry
     -----------------------------------------------


     total cpu time spent up to now is       16.8 secs

     total energy              =     -45.98893961 Ry
     estimated scf accuracy    <       0.00000003 Ry

     iteration # 10     ecut=    30.00 Ry     beta= 0.30
     Davidson diagonalization with overlap
     ethr =  1.70E-10,  avg # of iterations =  2.0


     -----------------------------------------------
     Non-local corr. energy    =       0.14190614 Ry
     -----------------------------------------------


     total cpu time spent up to now is       16.9 secs

     total energy              =     -45.98893965 Ry
     estimated scf accuracy    <          8.1E-09 Ry

     iteration # 11     ecut=    30.00 Ry     beta= 0.30
     Davidson diagonalization with overlap
     ethr =  5.05E-11,  avg # of iterations =  2.0


     -----------------------------------------------
     Non-local corr. energy    =       0.14190429 Ry
     -----------------------------------------------


     total cpu time spent up to now is       16.9 secs

     End of self-consistent calculation

          k = 0.1250 0.2165 0.0962 (   626 PWs)   bands (ev):

   -11.0323 -10.7532   0.4341   1.0672   1.1131   2.0905   2.1720   2.2041
    14.1682  15.3917  15.7663  16.7253

     occupation numbers 
     1.0000   1.0000   1.0000   1.0000   1.0000   1.0000   1.0000   1.0000
     0.0000   0.0000   0.0000   0.0000

          k = 0.1250 0.5052 0.0962 (   635 PWs)   bands (ev):

    -7.5506  -7.3416  -4.6314  -4.4741  -0.0797   0.0025   4.3830   5.4589
     9.3948  10.0980  16.3176  16.7326

     occupation numbers 
     1.0000   1.0000   1.0000   1.0000   1.0000   1.0000   1.0000   1.0000
     0.0000   0.0000   0.0000   0.0000

          k = 0.1250-0.3608 0.0962 (   638 PWs)   bands (ev):

    -9.5974  -9.3439  -1.6856  -1.5751   0.6819   0.7502   2.1400   3.6553
    12.3196  12.9305  15.8150  16.7025

     occupation numbers 
     1.0000   1.0000   1.0000   1.0000   1.0000   1.0000   1.0000   1.0000
     0.0000   0.0000   0.0000   0.0000

          k = 0.1250-0.0722 0.0962 (   616 PWs)   bands (ev):

   -11.7621 -11.4700  -0.4483   1.2634   2.8324   2.8820   3.5027   3.5396
    13.3211  15.8965  16.0320  17.4228

     occupation numbers 
     1.0000   1.0000   1.0000   1.0000   1.0000   1.0000   1.0000   1.0000
     0.0000   0.0000   0.0000   0.0000

          k = 0.3750 0.6495 0.0962 (   638 PWs)   bands (ev):

    -5.9802  -5.8763  -5.0088  -4.9705  -2.2905  -2.1929   6.0721   6.6786
     8.4150   8.5873  18.2647  18.4077

     occupation numbers 
     1.0000   1.0000   1.0000   1.0000   1.0000   1.0000   1.0008   0.9992
     0.0000   0.0000   0.0000   0.0000

          k = 0.3750-0.2165 0.0962 (   632 PWs)   bands (ev):

    -8.8950  -8.6547  -3.3476  -3.1975   1.2510   1.3079   2.9251   4.3171
    10.8308  11.7095  15.0207  15.3585

     occupation numbers 
     1.0000   1.0000   1.0000   1.0000   1.0000   1.0000   1.0000   1.0000
     0.0000   0.0000   0.0000   0.0000

     the Fermi energy is     6.9287 ev

!    total energy              =     -45.98893970 Ry
     estimated scf accuracy    <          5.8E-10 Ry
     smearing contrib. (-TS)   =       0.00041687 Ry
     internal energy E=F+TS    =     -45.98935657 Ry

     The total energy is F=E-TS. E is the sum of the following terms:
     one-electron contribution =      -7.82643444 Ry
     hartree contribution      =      12.25003315 Ry
     xc contribution           =     -14.53695971 Ry
     ewald contribution        =     -35.87599557 Ry

     convergence has been achieved in  11 iterations

     Forces acting on atoms (cartesian axes, Ry/au):

     atom    1 type  1   force =     0.00000000    0.00000000   -0.00000000
     atom    2 type  1   force =     0.00000000    0.00000000    0.00000000
     atom    3 type  1   force =     0.00000000    0.00000000   -0.00000000
     atom    4 type  1   force =     0.00000000    0.00000000    0.00000000
     The non-local contrib.  to forces
     atom    1 type  1   force =     0.00000000    0.00000000    0.00000000
     atom    2 type  1   force =    -0.00000000   -0.00000000    0.00000000
     atom    3 type  1   force =     0.00000000   -0.00000000    0.00000000
     atom    4 type  1   force =     0.00000000    0.00000000    0.00000000
     The ionic contribution  to forces
     atom    1 type  1   force =     0.00000852   -0.00000492   -0.00000000
     atom    2 type  1   force =    -0.00000856    0.00000494    0.00000000
     atom    3 type  1   force =    -0.00000852    0.00000492    0.00000000
     atom    4 type  1   force =     0.00000856   -0.00000494    0.00000000
     The local contribution  to forces
     atom    1 type  1   force =     0.00000000    0.00000000    0.00000000
     atom    2 type  1   force =    -0.00000833    0.00000481    0.00000000
     atom    3 type  1   force =    -0.00000000   -0.00000000    0.00000000
     atom    4 type  1   force =     0.00000833   -0.00000481    0.00000000
     The core correction contribution to forces
     atom    1 type  1   force =     0.00000000    0.00000000    0.00000000
     atom    2 type  1   force =     0.00000000    0.00000000    0.00000000
     atom    3 type  1   force =     0.00000000    0.00000000    0.00000000
     atom    4 type  1   force =     0.00000000    0.00000000    0.00000000
     The Hubbard contrib.    to forces
     atom    1 type  1   force =     0.00000000    0.00000000    0.00000000
     atom    2 type  1   force =     0.00000000    0.00000000    0.00000000
     atom    3 type  1   force =     0.00000000    0.00000000    0.00000000
     atom    4 type  1   force =     0.00000000    0.00000000    0.00000000
     The SCF correction term to forces
     atom    1 type  1   force =     0.00000000   -0.00000000    0.00000000
     atom    2 type  1   force =     0.00000000   -0.00000000    0.00000000
     atom    3 type  1   force =    -0.00000000    0.00000000   -0.00000000
     atom    4 type  1   force =    -0.00000000    0.00000000   -0.00000000

     Total force =     0.000000     Total SCF correction =     0.000000


     Computing stress (Cartesian axis) and pressure

          total   stress  (Ry/bohr**3)                   (kbar)     P=       25.50
   0.00010171  -0.00000000   0.00000000           14.96       -0.00        0.00
  -0.00000000   0.00010171  -0.00000000           -0.00       14.96       -0.00
   0.00000000   0.00000000   0.00031653            0.00        0.00       46.56

     kinetic stress (kbar)  11126.69      0.00      0.00
                                0.00  11126.69     -0.00
                                0.00     -0.00  12903.82

     local   stress (kbar) -16925.72      0.01      0.00
                                0.01 -16925.71      0.00
                                0.00      0.00  24257.95

     nonloc. stress (kbar)   -484.36      0.00      0.00
                                0.00   -484.36      0.00
                                0.00      0.00   -490.10

     hartree stress (kbar)   6782.79     -0.00      0.00
                               -0.00   6782.79     -0.00
                                0.00     -0.00  -5656.49

     exc-cor stress (kbar)  -2855.40     -0.00      0.00
                               -0.00  -2855.40     -0.00
                                0.00     -0.00  -3143.20

     corecor stress (kbar)      0.00      0.00      0.00
                                0.00      0.00      0.00
                                0.00      0.00      0.00

     ewald   stress (kbar)   2365.81     -0.03     -0.00
                               -0.03   2365.78     -0.00
                               -0.00     -0.00 -27894.47

     hubbard stress (kbar)      0.00      0.00      0.00
                                0.00      0.00      0.00
                                0.00      0.00      0.00

     DFT-D   stress (kbar)      0.00      0.00      0.00
                                0.00      0.00      0.00
                                0.00      0.00      0.00

     XDM     stress (kbar)      0.00      0.00      0.00
                                0.00      0.00      0.00
                                0.00      0.00      0.00

     dft-nl  stress (kbar)      5.17     -0.00      0.00
                               -0.00      5.17      0.00
                                0.00      0.00     69.04

     TS-vdW  stress (kbar)      0.00      0.00      0.00
                                0.00      0.00      0.00
                                0.00      0.00      0.00



     BFGS Geometry Optimization
     Energy error            =      0.0E+00
     Gradient error          =      7.6E-32
     Cell gradient error     =      3.2E-04


     number of scf cycles    =   1
     number of bfgs steps    =   0

     enthalpy new            =     -45.9889396983 Ry

     new trust radius        =       0.0238893790 bohr
     new conv_thr            =       0.0000000010 Ry

     new unit-cell volume =    230.81718 a.u.^3 (    34.20358 Ang^3 )
     density =      2.33247 g/cm^3

CELL_PARAMETERS (alat=  4.66006462)
   1.002542776  -0.000000000   0.000000000
  -0.501271388   0.868227512   0.000000000
   0.000000000  -0.000000000   2.620329235

ATOMIC_POSITIONS (crystal)
C            -0.0000000000        1.0000000000        0.7500000000
C             0.6666670000        0.3333330000        0.7500000000
C            -0.0000000000        1.0000000000        0.2500000000
C             0.3333330000        0.6666670000        0.2500000000



     Writing output data file ./tmp/graphite.save/
     NEW-OLD atomic charge density approx. for the potential


     -----------------------------------------------
     Non-local corr. energy    =       0.14432313 Ry
     -----------------------------------------------

     extrapolated charge   16.20604, renormalised to   16.00000

     total cpu time spent up to now is       17.0 secs

     Self-consistent Calculation

     iteration #  1     ecut=    30.00 Ry     beta= 0.30
     Davidson diagonalization with overlap
     ethr =  1.00E-06,  avg # of iterations =  6.0


     -----------------------------------------------
     Non-local corr. energy    =       0.14210647 Ry
     -----------------------------------------------


     total cpu time spent up to now is       17.1 secs

     total energy              =     -45.98792575 Ry
     estimated scf accuracy    <       0.00082670 Ry

     iteration #  2     ecut=    30.00 Ry     beta= 0.30
     Davidson diagonalization with overlap
     ethr =  5.17E-06,  avg # of iterations =  4.7


     -----------------------------------------------
     Non-local corr. energy    =       0.14231382 Ry
     -----------------------------------------------


     total cpu time spent up to now is       17.2 secs

     total energy              =     -45.98951084 Ry
     estimated scf accuracy    <       0.00019967 Ry

     iteration #  3     ecut=    30.00 Ry     beta= 0.30
     Davidson diagonalization with overlap
     ethr =  1.25E-06,  avg # of iterations =  1.0


     -----------------------------------------------
     Non-local corr. energy    =       0.14297656 Ry
     -----------------------------------------------


     total cpu time spent up to now is       17.2 secs

     total energy              =     -45.98944015 Ry
     estimated scf accuracy    <       0.00010608 Ry

     iteration #  4     ecut=    30.00 Ry     beta= 0.30
     Davidson diagonalization with overlap
     ethr =  6.63E-07,  avg # of iterations =  2.0


     -----------------------------------------------
     Non-local corr. energy    =       0.14286382 Ry
     -----------------------------------------------


     total cpu time spent up to now is       17.3 secs

     total energy              =     -45.98946824 Ry
     estimated scf accuracy    <       0.00001772 Ry

     iteration #  5     ecut=    30.00 Ry     beta= 0.30
     Davidson diagonalization with overlap
     ethr =  1.11E-07,  avg # of iterations =  1.0


     -----------------------------------------------
     Non-local corr. energy    =       0.14277478 Ry
     -----------------------------------------------


     total cpu time spent up to now is       17.3 secs

     total energy              =     -45.98946635 Ry
     estimated scf accuracy    <       0.00000442 Ry

     iteration #  6     ecut=    30.00 Ry     beta= 0.30
     Davidson diagonalization with overlap
     ethr =  2.76E-08,  avg # of iterations =  2.0


     -----------------------------------------------
     Non-local corr. energy    =       0.14276675 Ry
     -----------------------------------------------


     total cpu time spent up to now is       17.4 secs

     total energy              =     -45.98946684 Ry
     estimated scf accuracy    <       0.00000016 Ry

     iteration #  7     ecut=    30.00 Ry     beta= 0.30
     Davidson diagonalization with overlap
     ethr =  9.99E-10,  avg # of iterations =  1.0


     -----------------------------------------------
     Non-local corr. energy    =       0.14274552 Ry
     -----------------------------------------------


     total cpu time spent up to now is       17.4 secs

     total energy              =     -45.98946681 Ry
     estimated scf accuracy    <       0.00000006 Ry

     iteration #  8     ecut=    30.00 Ry     beta= 0.30
     Davidson diagonalization with overlap
     ethr =  3.80E-10,  avg # of iterations =  2.0


     -----------------------------------------------
     Non-local corr. energy    =       0.14275418 Ry
     -----------------------------------------------


     total cpu time spent up to now is       17.5 secs

     total energy              =     -45.98946682 Ry
     estimated scf accuracy    <       0.00000003 Ry

     iteration #  9     ecut=    30.00 Ry     beta= 0.30
     Davidson diagonalization with overlap
     ethr =  2.10E-10,  avg # of iterations =  2.0


     -----------------------------------------------
     Non-local corr. energy    =       0.14275626 Ry
     -----------------------------------------------


     total cpu time spent up to now is       17.5 secs

     End of self-consistent calculation

          k = 0.1247 0.2160 0.0954 (   626 PWs)   bands (ev):

   -11.1225 -10.8579   0.3460   0.9217   0.9650   1.9481   2.0330   2.0632
    13.9256  15.1887  15.5466  16.5158

     occupation numbers 
     1.0000   1.0000   1.0000   1.0000   1.0000   1.0000   1.0000   1.0000
     0.0000   0.0000   0.0000   0.0000

          k = 0.1247 0.5039 0.0954 (   635 PWs)   bands (ev):

    -7.6609  -7.4633  -4.7466  -4.5981  -0.2050  -0.1275   4.2658   5.3043
     9.2396   9.9177  16.0936  16.4892

     occupation numbers 
     1.0000   1.0000   1.0000   1.0000   1.0000   1.0000   1.0000   1.0000
     0.0000   0.0000   0.0000   0.0000

          k = 0.1247-0.3599 0.0954 (   638 PWs)   bands (ev):

    -9.6950  -9.4548  -1.8181  -1.7138   0.5526   0.6169   2.0406   3.5050
    12.1443  12.7306  15.5745  16.4799

     occupation numbers 
     1.0000   1.0000   1.0000   1.0000   1.0000   1.0000   1.0000   1.0000
     0.0000   0.0000   0.0000   0.0000

          k = 0.1247-0.0720 0.0954 (   616 PWs)   bands (ev):

   -11.8487 -11.5716  -0.5308   1.1254   2.6824   2.7292   3.3538   3.3884
    13.0779  15.6908  15.8196  17.1956

     occupation numbers 
     1.0000   1.0000   1.0000   1.0000   1.0000   1.0000   1.0000   1.0000
     0.0000   0.0000   0.0000   0.0000

          k = 0.3740 0.6479 0.0954 (   638 PWs)   bands (ev):

    -6.1052  -6.0068  -5.1279  -5.0924  -2.3988  -2.3074   5.9411   6.5267
     8.2559   8.4184  18.0761  18.2073

     occupation numbers 
     1.0000   1.0000   1.0000   1.0000   1.0000   1.0000   1.0011   0.9989
     0.0000   0.0000   0.0000   0.0000

          k = 0.3740-0.2160 0.0954 (   632 PWs)   bands (ev):

    -8.9966  -8.7690  -3.4694  -3.3276   1.1186   1.1722   2.8197   4.1644
    10.6705  11.5159  14.8016  15.1229

     occupation numbers 
     1.0000   1.0000   1.0000   1.0000   1.0000   1.0000   1.0000   1.0000
     0.0000   0.0000   0.0000   0.0000

     the Fermi energy is     6.7765 ev

!    total energy              =     -45.98946682 Ry
     estimated scf accuracy    <          5.8E-10 Ry
     smearing contrib. (-TS)   =       0.00042049 Ry
     internal energy E=F+TS    =     -45.98988731 Ry

     The total energy is F=E-TS. E is the sum of the following terms:
     one-electron contribution =      -8.34100390 Ry
     hartree contribution      =      12.41864064 Ry
     xc contribution           =     -14.51337139 Ry
     ewald contribution        =     -35.55415266 Ry

     convergence has been achieved in   9 iterations

     Forces acting on atoms (cartesian axes, Ry/au):

     atom    1 type  1   force =     0.00000000    0.00000000   -0.00000000
     atom    2 type  1   force =     0.00000000    0.00000000    0.00000000
     atom    3 type  1   force =    -0.00000000   -0.00000000    0.00000000
     atom    4 type  1   force =     0.00000000    0.00000000    0.00000000
     The non-local contrib.  to forces
     atom    1 type  1   force =    -0.00000000   -0.00000000   -0.00000000
     atom    2 type  1   force =    -0.00000000    0.00000000    0.00000000
     atom    3 type  1   force =     0.00000000    0.00000000    0.00000000
     atom    4 type  1   force =    -0.00000000    0.00000000    0.00000000
     The ionic contribution  to forces
     atom    1 type  1   force =     0.00000848   -0.00000489   -0.00000000
     atom    2 type  1   force =    -0.00000851    0.00000491   -0.00000000
     atom    3 type  1   force =    -0.00000848    0.00000489   -0.00000000
     atom    4 type  1   force =     0.00000851   -0.00000491   -0.00000000
     The local contribution  to forces
     atom    1 type  1   force =     0.00000000    0.00000000    0.00000000
     atom    2 type  1   force =    -0.00000836    0.00000483    0.00000000
     atom    3 type  1   force =    -0.00000000   -0.00000000    0.00000000
     atom    4 type  1   force =     0.00000836   -0.00000483    0.00000000
     The core correction contribution to forces
     atom    1 type  1   force =     0.00000000    0.00000000    0.00000000
     atom    2 type  1   force =     0.00000000    0.00000000    0.00000000
     atom    3 type  1   force =     0.00000000    0.00000000    0.00000000
     atom    4 type  1   force =     0.00000000    0.00000000    0.00000000
     The Hubbard contrib.    to forces
     atom    1 type  1   force =     0.00000000    0.00000000    0.00000000
     atom    2 type  1   force =     0.00000000    0.00000000    0.00000000
     atom    3 type  1   force =     0.00000000    0.00000000    0.00000000
     atom    4 type  1   force =     0.00000000    0.00000000    0.00000000
     The SCF correction term to forces
     atom    1 type  1   force =     0.00000000   -0.00000000   -0.00000000
     atom    2 type  1   force =    -0.00000000    0.00000000   -0.00000000
     atom    3 type  1   force =    -0.00000000    0.00000000   -0.00000000
     atom    4 type  1   force =     0.00000000   -0.00000000    0.00000000

     Total force =     0.000000     Total SCF correction =     0.000000


     Computing stress (Cartesian axis) and pressure

          total   stress  (Ry/bohr**3)                   (kbar)     P=        2.72
  -0.00010864   0.00000000   0.00000000          -15.98        0.00        0.00
   0.00000000  -0.00010864  -0.00000000            0.00      -15.98       -0.00
  -0.00000000   0.00000000   0.00027283           -0.00        0.00       40.13

     kinetic stress (kbar)  10951.29      0.00     -0.00
                                0.00  10951.29      0.00
                               -0.00      0.00  12713.11

     local   stress (kbar) -16960.24      0.01     -0.00
                                0.01 -16960.23      0.00
                               -0.00      0.00  24127.33

     nonloc. stress (kbar)   -471.67     -0.00     -0.00
                               -0.00   -471.67     -0.00
                               -0.00     -0.00   -478.60

     hartree stress (kbar)   6797.67      0.00      0.00
                                0.00   6797.67      0.00
                                0.00      0.00  -5680.66

     exc-cor stress (kbar)  -2814.21      0.00      0.00
                                0.00  -2814.21      0.00
                                0.00      0.00  -3098.11

     corecor stress (kbar)      0.00      0.00      0.00
                                0.00      0.00      0.00
                                0.00      0.00      0.00

     ewald   stress (kbar)   2476.06     -0.03     -0.00
                               -0.03   2476.03     -0.00
                               -0.00     -0.00 -27611.57

     hubbard stress (kbar)      0.00      0.00      0.00
                                0.00      0.00      0.00
                                0.00      0.00      0.00

     DFT-D   stress (kbar)      0.00      0.00      0.00
                                0.00      0.00      0.00
                                0.00      0.00      0.00

     XDM     stress (kbar)      0.00      0.00      0.00
                                0.00      0.00      0.00
                                0.00      0.00      0.00

     dft-nl  stress (kbar)      5.11     -0.00     -0.00
                               -0.00      5.11      0.00
                               -0.00      0.00     68.64

     TS-vdW  stress (kbar)      0.00      0.00      0.00
                                0.00      0.00      0.00
                                0.00      0.00      0.00


     Energy error            =      5.3E-04
     Gradient error          =      1.4E-22
     Cell gradient error     =      2.7E-04


     number of scf cycles    =   2
     number of bfgs steps    =   1

     enthalpy old            =     -45.9889396983 Ry
     enthalpy new            =     -45.9894668244 Ry

     CASE: enthalpy_new < enthalpy_old

     new trust radius        =       0.0357838820 bohr
     new conv_thr            =            1.0E-11 Ry

     new unit-cell volume =    233.59834 a.u.^3 (    34.61570 Ang^3 )
     density =      2.30470 g/cm^3

CELL_PARAMETERS (alat=  4.66006462)
   1.002677764   0.000000000  -0.000000000
  -0.501338882   0.868344415   0.000000000
   0.000000000  -0.000000000   2.651188051

ATOMIC_POSITIONS (crystal)
C             0.0000000000        1.0000000000        0.7500000000
C             0.6666670000        0.3333330000        0.7500000000
C             0.0000000000        1.0000000000        0.2500000000
C             0.3333330000        0.6666670000        0.2500000000



     Writing output data file ./tmp/graphite.save/
     NEW-OLD atomic charge density approx. for the potential


     -----------------------------------------------
     Non-local corr. energy    =       0.14522804 Ry
     -----------------------------------------------

     extrapolated charge   16.19049, renormalised to   16.00000

     total cpu time spent up to now is       17.6 secs

     Self-consistent Calculation

     iteration #  1     ecut=    30.00 Ry     beta= 0.30
     Davidson diagonalization with overlap
     ethr =  1.00E-06,  avg # of iterations =  7.7


     -----------------------------------------------
     Non-local corr. energy    =       0.14320492 Ry
     -----------------------------------------------


     total cpu time spent up to now is       17.7 secs

     total energy              =     -45.98882009 Ry
     estimated scf accuracy    <       0.00058351 Ry

     iteration #  2     ecut=    30.00 Ry     beta= 0.30
     Davidson diagonalization with overlap
     ethr =  3.65E-06,  avg # of iterations =  6.0


     -----------------------------------------------
     Non-local corr. energy    =       0.14339663 Ry
     -----------------------------------------------


     total cpu time spent up to now is       17.8 secs

     total energy              =     -45.99016976 Ry
     estimated scf accuracy    <       0.00024585 Ry

     iteration #  3     ecut=    30.00 Ry     beta= 0.30
     Davidson diagonalization with overlap
     ethr =  1.54E-06,  avg # of iterations =  1.0


     -----------------------------------------------
     Non-local corr. energy    =       0.14410402 Ry
     -----------------------------------------------


     total cpu time spent up to now is       17.8 secs

     total energy              =     -45.99007957 Ry
     estimated scf accuracy    <       0.00013922 Ry

     iteration #  4     ecut=    30.00 Ry     beta= 0.30
     Davidson diagonalization with overlap
     c_bands:  1 eigenvalues not converged
     ethr =  8.70E-07,  avg # of iterations =  5.0


     -----------------------------------------------
     Non-local corr. energy    =       0.14396276 Ry
     -----------------------------------------------


     total cpu time spent up to now is       17.9 secs

     total energy              =     -45.99011523 Ry
     estimated scf accuracy    <       0.00002750 Ry

     iteration #  5     ecut=    30.00 Ry     beta= 0.30
     Davidson diagonalization with overlap
     ethr =  1.72E-07,  avg # of iterations =  2.8


     -----------------------------------------------
     Non-local corr. energy    =       0.14382864 Ry
     -----------------------------------------------


     total cpu time spent up to now is       17.9 secs

     total energy              =     -45.99011230 Ry
     estimated scf accuracy    <       0.00000609 Ry

     iteration #  6     ecut=    30.00 Ry     beta= 0.30
     Davidson diagonalization with overlap
     ethr =  3.81E-08,  avg # of iterations =  2.0


     -----------------------------------------------
     Non-local corr. energy    =       0.14384469 Ry
     -----------------------------------------------


     total cpu time spent up to now is       18.0 secs

     total energy              =     -45.99011355 Ry
     estimated scf accuracy    <       0.00000002 Ry

     iteration #  7     ecut=    30.00 Ry     beta= 0.30
     Davidson diagonalization with overlap
     ethr =  1.40E-10,  avg # of iterations =  2.3


     -----------------------------------------------
     Non-local corr. energy    =       0.14382585 Ry
     -----------------------------------------------


     total cpu time spent up to now is       18.0 secs

     total energy              =     -45.99011355 Ry
     estimated scf accuracy    <       0.00000004 Ry

     iteration #  8     ecut=    30.00 Ry     beta= 0.30
     Davidson diagonalization with overlap
     ethr =  1.40E-10,  avg # of iterations =  2.0


     -----------------------------------------------
     Non-local corr. energy    =       0.14383685 Ry
     -----------------------------------------------


     total cpu time spent up to now is       18.1 secs

     total energy              =     -45.99011355 Ry
     estimated scf accuracy    <       0.00000004 Ry

     iteration #  9     ecut=    30.00 Ry     beta= 0.30
     Davidson diagonalization with overlap
     ethr =  1.40E-10,  avg # of iterations =  2.0


     -----------------------------------------------
     Non-local corr. energy    =       0.14383963 Ry
     -----------------------------------------------


     total cpu time spent up to now is       18.1 secs

     total energy              =     -45.99011356 Ry
     estimated scf accuracy    <          1.5E-11 Ry

     iteration # 10     ecut=    30.00 Ry     beta= 0.30
     Davidson diagonalization with overlap
     ethr =  1.00E-13,  avg # of iterations =  4.3


     -----------------------------------------------
     Non-local corr. energy    =       0.14383693 Ry
     -----------------------------------------------


     total cpu time spent up to now is       18.2 secs

     total energy              =     -45.99011356 Ry
     estimated scf accuracy    <          2.7E-09 Ry

     iteration # 11     ecut=    30.00 Ry     beta= 0.30
     Davidson diagonalization with overlap
     ethr =  1.00E-13,  avg # of iterations =  3.7


     -----------------------------------------------
     Non-local corr. energy    =       0.14383693 Ry
     -----------------------------------------------


     total cpu time spent up to now is       18.3 secs

     End of self-consistent calculation

          k = 0.1247 0.2159 0.0943 (   626 PWs)   bands (ev):

   -11.2499 -11.0068   0.2424   0.7813   0.8204   1.7624   1.8918   1.9190
    13.6207  15.0623  15.3955  16.3697

     occupation numbers 
     1.0000   1.0000   1.0000   1.0000   1.0000   1.0000   1.0000   1.0000
     0.0000   0.0000   0.0000   0.0000

          k = 0.1247 0.5038 0.0943 (   635 PWs)   bands (ev):

    -7.7921  -7.6112  -4.8803  -4.7448  -0.3429  -0.2727   4.1548   5.1383
     9.1111   9.7558  15.9618  16.3299

     occupation numbers 
     1.0000   1.0000   1.0000   1.0000   1.0000   1.0000   1.0000   1.0000
     0.0000   0.0000   0.0000   0.0000

          k = 0.1247-0.3599 0.0943 (   638 PWs)   bands (ev):

    -9.8238  -9.6034  -1.9548  -1.8601   0.4139   0.4719   1.9352   3.3234
    12.0217  12.5733  15.2901  16.3431

     occupation numbers 
     1.0000   1.0000   1.0000   1.0000   1.0000   1.0000   1.0000   1.0000
     0.0000   0.0000   0.0000   0.0000

          k = 0.1247-0.0720 0.0943 (   616 PWs)   bands (ev):

   -11.9754 -11.7206  -0.6337   0.9381   2.5415   2.5836   3.2122   3.2432
    12.7652  15.5496  15.6696  16.9392

     occupation numbers 
     1.0000   1.0000   1.0000   1.0000   1.0000   1.0000   1.0000   1.0000
     0.0000   0.0000   0.0000   0.0000

          k = 0.3740 0.6478 0.0943 (   638 PWs)   bands (ev):

    -6.2405  -6.1508  -5.2674  -5.2349  -2.5348  -2.4517   5.8261   6.3795
     8.1163   8.2614  17.9107  18.0389

     occupation numbers 
     1.0000   1.0000   1.0000   1.0000   1.0000   1.0000   1.0019   0.9981
     0.0000   0.0000   0.0000   0.0000

          k = 0.3740-0.2159 0.0943 (   632 PWs)   bands (ev):

    -9.1261  -8.9174  -3.6039  -3.4746   0.9791   1.0272   2.7128   3.9870
    10.5499  11.3496  14.6690  14.9634

     occupation numbers 
     1.0000   1.0000   1.0000   1.0000   1.0000   1.0000   1.0000   1.0000
     0.0000   0.0000   0.0000   0.0000

     the Fermi energy is     6.6288 ev

!    total energy              =     -45.99011356 Ry
     estimated scf accuracy    <          3.7E-13 Ry
     smearing contrib. (-TS)   =       0.00042849 Ry
     internal energy E=F+TS    =     -45.99054205 Ry

     The total energy is F=E-TS. E is the sum of the following terms:
     one-electron contribution =      -9.19813044 Ry
     hartree contribution      =      12.76158046 Ry
     xc contribution           =     -14.50885573 Ry
     ewald contribution        =     -35.04513634 Ry

     convergence has been achieved in  11 iterations

     Forces acting on atoms (cartesian axes, Ry/au):

     atom    1 type  1   force =    -0.00000000   -0.00000000    0.00000000
     atom    2 type  1   force =     0.00000000    0.00000000   -0.00000000
     atom    3 type  1   force =    -0.00000000   -0.00000000    0.00000000
     atom    4 type  1   force =    -0.00000000    0.00000000    0.00000000
     The non-local contrib.  to forces
     atom    1 type  1   force =    -0.00000000    0.00000000    0.00000000
     atom    2 type  1   force =    -0.00000000    0.00000000    0.00000000
     atom    3 type  1   force =    -0.00000000    0.00000000    0.00000000
     atom    4 type  1   force =    -0.00000000    0.00000000    0.00000000
     The ionic contribution  to forces
     atom    1 type  1   force =     0.00000848   -0.00000489   -0.00000000
     atom    2 type  1   force =    -0.00000851    0.00000491   -0.00000000
     atom    3 type  1   force =    -0.00000848    0.00000489   -0.00000000
     atom    4 type  1   force =     0.00000851   -0.00000491   -0.00000000
     The local contribution  to forces
     atom    1 type  1   force =    -0.00000000    0.00000000    0.00000000
     atom    2 type  1   force =    -0.00000836    0.00000483    0.00000000
     atom    3 type  1   force =     0.00000000   -0.00000000    0.00000000
     atom    4 type  1   force =     0.00000836   -0.00000483    0.00000000
     The core correction contribution to forces
     atom    1 type  1   force =     0.00000000    0.00000000    0.00000000
     atom    2 type  1   force =     0.00000000    0.00000000    0.00000000
     atom    3 type  1   force =     0.00000000    0.00000000    0.00000000
     atom    4 type  1   force =     0.00000000    0.00000000    0.00000000
     The Hubbard contrib.    to forces
     atom    1 type  1   force =     0.00000000    0.00000000    0.00000000
     atom    2 type  1   force =     0.00000000    0.00000000    0.00000000
     atom    3 type  1   force =     0.00000000    0.00000000    0.00000000
     atom    4 type  1   force =     0.00000000    0.00000000    0.00000000
     The SCF correction term to forces
     atom    1 type  1   force =     0.00000000   -0.00000000    0.00000000
     atom    2 type  1   force =     0.00000000   -0.00000000    0.00000000
     atom    3 type  1   force =    -0.00000000    0.00000000   -0.00000000
     atom    4 type  1   force =    -0.00000000    0.00000000   -0.00000000

     Total force =     0.000000     Total SCF correction =     0.000000


     Computing stress (Cartesian axis) and pressure

          total   stress  (Ry/bohr**3)                   (kbar)     P=       -0.97
  -0.00011472   0.00000000   0.00000000          -16.88        0.00        0.00
   0.00000000  -0.00011472  -0.00000000            0.00      -16.88       -0.00
  -0.00000000   0.00000000   0.00020963           -0.00        0.00       30.84

     kinetic stress (kbar)  10818.51     -0.00     -0.00
                               -0.00  10818.51      0.00
                               -0.00      0.00  12552.57

     local   stress (kbar) -17289.58      0.01      0.00
                                0.01 -17289.56     -0.00
                                0.00     -0.00  24365.76

     nonloc. stress (kbar)   -465.78      0.00      0.00
                                0.00   -465.78     -0.00
                                0.00     -0.00   -472.30

     hartree stress (kbar)   6932.20      0.00     -0.00
                                0.00   6932.20      0.00
                               -0.00      0.00  -5827.99

     exc-cor stress (kbar)  -2780.02      0.00     -0.00
                                0.00  -2780.02      0.00
                               -0.00      0.00  -3061.20

     corecor stress (kbar)      0.00      0.00      0.00
                                0.00      0.00      0.00
                                0.00      0.00      0.00

     ewald   stress (kbar)   2762.82     -0.02     -0.00
                               -0.02   2762.79     -0.00
                               -0.00     -0.00 -27594.76

     hubbard stress (kbar)      0.00      0.00      0.00
                                0.00      0.00      0.00
                                0.00      0.00      0.00

     DFT-D   stress (kbar)      0.00      0.00      0.00
                                0.00      0.00      0.00
                                0.00      0.00      0.00

     XDM     stress (kbar)      0.00      0.00      0.00
                                0.00      0.00      0.00
                                0.00      0.00      0.00

     dft-nl  stress (kbar)      4.98     -0.00      0.00
                               -0.00      4.98     -0.00
                                0.00     -0.00     68.76

     TS-vdW  stress (kbar)      0.00      0.00      0.00
                                0.00      0.00      0.00
                                0.00      0.00      0.00


     Energy error            =      6.5E-04
     Gradient error          =      3.3E-22
     Cell gradient error     =      2.1E-04


     number of scf cycles    =   3
     number of bfgs steps    =   2

     enthalpy old            =     -45.9894668244 Ry
     enthalpy new            =     -45.9901135575 Ry

     CASE: enthalpy_new < enthalpy_old

     new trust radius        =       0.0533697107 bohr
     new conv_thr            =            1.0E-11 Ry

     new unit-cell volume =    237.44744 a.u.^3 (    35.18608 Ang^3 )
     density =      2.26734 g/cm^3

CELL_PARAMETERS (alat=  4.66006462)
   1.002193792   0.000000000  -0.000000000
  -0.501096896   0.867925284   0.000000000
   0.000000000  -0.000000000   2.697476275

ATOMIC_POSITIONS (crystal)
C             0.0000000000        1.0000000000        0.7500000000
C             0.6666670000        0.3333330000        0.7500000000
C             0.0000000000        1.0000000000        0.2500000000
C             0.3333330000        0.6666670000        0.2500000000



     Writing output data file ./tmp/graphite.save/
     NEW-OLD atomic charge density approx. for the potential


     -----------------------------------------------
     Non-local corr. energy    =       0.14724665 Ry
     -----------------------------------------------

     extrapolated charge   16.25936, renormalised to   16.00000

     total cpu time spent up to now is       18.4 secs

     Self-consistent Calculation

     iteration #  1     ecut=    30.00 Ry     beta= 0.30
     Davidson diagonalization with overlap
     ethr =  1.00E-06,  avg # of iterations =  8.5


     -----------------------------------------------
     Non-local corr. energy    =       0.14446430 Ry
     -----------------------------------------------


     total cpu time spent up to now is       18.4 secs

     total energy              =     -45.98830855 Ry
     estimated scf accuracy    <       0.00108871 Ry

     iteration #  2     ecut=    30.00 Ry     beta= 0.30
     Davidson diagonalization with overlap
     ethr =  6.80E-06,  avg # of iterations =  4.8


     -----------------------------------------------
     Non-local corr. energy    =       0.14473293 Ry
     -----------------------------------------------


     total cpu time spent up to now is       18.5 secs

     total energy              =     -45.99093468 Ry
     estimated scf accuracy    <       0.00052111 Ry

     iteration #  3     ecut=    30.00 Ry     beta= 0.30
     Davidson diagonalization with overlap
     ethr =  3.26E-06,  avg # of iterations =  1.2


     -----------------------------------------------
     Non-local corr. energy    =       0.14575608 Ry
     -----------------------------------------------


     total cpu time spent up to now is       18.6 secs

     total energy              =     -45.99074020 Ry
     estimated scf accuracy    <       0.00029851 Ry

     iteration #  4     ecut=    30.00 Ry     beta= 0.30
     Davidson diagonalization with overlap
     ethr =  1.87E-06,  avg # of iterations =  2.3


     -----------------------------------------------
     Non-local corr. energy    =       0.14555225 Ry
     -----------------------------------------------


     total cpu time spent up to now is       18.6 secs

     total energy              =     -45.99081755 Ry
     estimated scf accuracy    <       0.00006056 Ry

     iteration #  5     ecut=    30.00 Ry     beta= 0.30
     Davidson diagonalization with overlap
     ethr =  3.79E-07,  avg # of iterations =  1.5


     -----------------------------------------------
     Non-local corr. energy    =       0.14532901 Ry
     -----------------------------------------------


     total cpu time spent up to now is       18.7 secs

     total energy              =     -45.99081023 Ry
     estimated scf accuracy    <       0.00001383 Ry

     iteration #  6     ecut=    30.00 Ry     beta= 0.30
     Davidson diagonalization with overlap
     ethr =  8.64E-08,  avg # of iterations =  2.0


     -----------------------------------------------
     Non-local corr. energy    =       0.14536842 Ry
     -----------------------------------------------


     total cpu time spent up to now is       18.7 secs

     total energy              =     -45.99081350 Ry
     estimated scf accuracy    <       0.00000049 Ry

     iteration #  7     ecut=    30.00 Ry     beta= 0.30
     Davidson diagonalization with overlap
     ethr =  3.08E-09,  avg # of iterations =  2.0


     -----------------------------------------------
     Non-local corr. energy    =       0.14535210 Ry
     -----------------------------------------------


     total cpu time spent up to now is       18.8 secs

     total energy              =     -45.99081361 Ry
     estimated scf accuracy    <       0.00000002 Ry

     iteration #  8     ecut=    30.00 Ry     beta= 0.30
     Davidson diagonalization with overlap
     ethr =  1.06E-10,  avg # of iterations =  2.0


     -----------------------------------------------
     Non-local corr. energy    =       0.14536328 Ry
     -----------------------------------------------


     total cpu time spent up to now is       18.9 secs

     total energy              =     -45.99081360 Ry
     estimated scf accuracy    <       0.00000006 Ry

     iteration #  9     ecut=    30.00 Ry     beta= 0.30
     Davidson diagonalization with overlap
     ethr =  1.06E-10,  avg # of iterations =  2.0


     -----------------------------------------------
     Non-local corr. energy    =       0.14537006 Ry
     -----------------------------------------------


     total cpu time spent up to now is       18.9 secs

     total energy              =     -45.99081361 Ry
     estimated scf accuracy    <          1.3E-09 Ry

     iteration # 10     ecut=    30.00 Ry     beta= 0.30
     Davidson diagonalization with overlap
     ethr =  8.33E-12,  avg # of iterations =  2.7


     -----------------------------------------------
     Non-local corr. energy    =       0.14536520 Ry
     -----------------------------------------------


     total cpu time spent up to now is       19.0 secs

     total energy              =     -45.99081361 Ry
     estimated scf accuracy    <          8.3E-09 Ry

     iteration # 11     ecut=    30.00 Ry     beta= 0.30
     Davidson diagonalization with overlap
     ethr =  8.33E-12,  avg # of iterations =  2.0


     -----------------------------------------------
     Non-local corr. energy    =       0.14536520 Ry
     -----------------------------------------------


     total cpu time spent up to now is       19.0 secs

     End of self-consistent calculation

          k = 0.1247 0.2160 0.0927 (   626 PWs)   bands (ev):

   -11.4363 -11.2224   0.0950   0.5896   0.6230   1.4986   1.6973   1.7205
    13.1925  14.9083  15.2075  16.1831

     occupation numbers 
     1.0000   1.0000   1.0000   1.0000   1.0000   1.0000   1.0000   1.0000
     0.0000   0.0000   0.0000   0.0000

          k = 0.1247 0.5041 0.0927 (   635 PWs)   bands (ev):

    -7.9790  -7.8207  -5.0698  -4.9518  -0.5360  -0.4759   4.0031   4.9087
     8.9424   9.5399  15.8053  16.1355

     occupation numbers 
     1.0000   1.0000   1.0000   1.0000   1.0000   1.0000   1.0000   1.0000
     0.0000   0.0000   0.0000   0.0000

          k = 0.1247-0.3601 0.0927 (   638 PWs)   bands (ev):

   -10.0103  -9.8169  -2.1443  -2.0624   0.2204   0.2701   1.7879   3.0683
    11.8666  12.3699  14.8918  16.1786

     occupation numbers 
     1.0000   1.0000   1.0000   1.0000   1.0000   1.0000   1.0000   1.0000
     0.0000   0.0000   0.0000   0.0000

          k = 0.1247-0.0720 0.0927 (   616 PWs)   bands (ev):

   -12.1617 -11.9374  -0.7816   0.6707   2.3503   2.3861   3.0197   3.0459
    12.3251  15.3714  15.4814  16.5772

     occupation numbers 
     1.0000   1.0000   1.0000   1.0000   1.0000   1.0000   1.0000   1.0000
     0.0000   0.0000   0.0000   0.0000

          k = 0.3742 0.6481 0.0927 (   638 PWs)   bands (ev):

    -6.4299  -6.3519  -5.4646  -5.4358  -2.7298  -2.6577   5.6709   6.1785
     7.9302   8.0516  17.6924  17.8146

     occupation numbers 
     1.0000   1.0000   1.0000   1.0000   1.0000   1.0000   1.0038   0.9962
     0.0000   0.0000   0.0000   0.0000

          k = 0.3742-0.2160 0.0927 (   632 PWs)   bands (ev):

    -9.3127  -9.1297  -3.7927  -3.6804   0.7852   0.8260   2.5645   3.7390
    10.3948  11.1302  14.5095  14.7660

     occupation numbers 
     1.0000   1.0000   1.0000   1.0000   1.0000   1.0000   1.0000   1.0000
     0.0000   0.0000   0.0000   0.0000

     the Fermi energy is     6.4264 ev

!    total energy              =     -45.99081361 Ry
     estimated scf accuracy    <          1.2E-12 Ry
     smearing contrib. (-TS)   =       0.00044736 Ry
     internal energy E=F+TS    =     -45.99126097 Ry

     The total energy is F=E-TS. E is the sum of the following terms:
     one-electron contribution =     -10.50827616 Ry
     hartree contribution      =      13.30038007 Ry
     xc contribution           =     -14.50824187 Ry
     ewald contribution        =     -34.27512301 Ry

     convergence has been achieved in  11 iterations

     Forces acting on atoms (cartesian axes, Ry/au):

     atom    1 type  1   force =     0.00000000    0.00000000   -0.00000000
     atom    2 type  1   force =    -0.00000000   -0.00000000    0.00000000
     atom    3 type  1   force =    -0.00000000   -0.00000000   -0.00000000
     atom    4 type  1   force =     0.00000000    0.00000000   -0.00000000
     The non-local contrib.  to forces
     atom    1 type  1   force =    -0.00000000    0.00000000    0.00000000
     atom    2 type  1   force =     0.00000000    0.00000000    0.00000000
     atom    3 type  1   force =     0.00000000    0.00000000    0.00000000
     atom    4 type  1   force =     0.00000000   -0.00000000   -0.00000000
     The ionic contribution  to forces
     atom    1 type  1   force =     0.00000848   -0.00000490   -0.00000000
     atom    2 type  1   force =    -0.00000851    0.00000491   -0.00000000
     atom    3 type  1   force =    -0.00000848    0.00000490   -0.00000000
     atom    4 type  1   force =     0.00000851   -0.00000491    0.00000000
     The local contribution  to forces
     atom    1 type  1   force =    -0.00000000    0.00000000    0.00000000
     atom    2 type  1   force =    -0.00000835    0.00000482    0.00000000
     atom    3 type  1   force =     0.00000000   -0.00000000    0.00000000
     atom    4 type  1   force =     0.00000835   -0.00000482    0.00000000
     The core correction contribution to forces
     atom    1 type  1   force =     0.00000000    0.00000000    0.00000000
     atom    2 type  1   force =     0.00000000    0.00000000    0.00000000
     atom    3 type  1   force =     0.00000000    0.00000000    0.00000000
     atom    4 type  1   force =     0.00000000    0.00000000    0.00000000
     The Hubbard contrib.    to forces
     atom    1 type  1   force =     0.00000000    0.00000000    0.00000000
     atom    2 type  1   force =     0.00000000    0.00000000    0.00000000
     atom    3 type  1   force =     0.00000000    0.00000000    0.00000000
     atom    4 type  1   force =     0.00000000    0.00000000    0.00000000
     The SCF correction term to forces
     atom    1 type  1   force =     0.00000000   -0.00000000    0.00000000
     atom    2 type  1   force =     0.00000000   -0.00000000    0.00000000
     atom    3 type  1   force =    -0.00000000    0.00000000   -0.00000000
     atom    4 type  1   force =    -0.00000000    0.00000000   -0.00000000

     Total force =     0.000000     Total SCF correction =     0.000000


     Computing stress (Cartesian axis) and pressure

          total   stress  (Ry/bohr**3)                   (kbar)     P=       -0.67
  -0.00006948   0.00000000   0.00000000          -10.22        0.00        0.00
   0.00000000  -0.00006948  -0.00000000            0.00      -10.22       -0.00
   0.00000000  -0.00000000   0.00012529            0.00       -0.00       18.43

     kinetic stress (kbar)  10648.11     -0.00     -0.00
                               -0.00  10648.11      0.00
                               -0.00      0.00  12341.95

     local   stress (kbar) -17828.22      0.01     -0.00
                                0.01 -17828.21     -0.00
                               -0.00     -0.00  24799.64

     nonloc. stress (kbar)   -459.58      0.00     -0.00
                                0.00   -459.58     -0.00
                                0.00     -0.00   -465.41

     hartree stress (kbar)   7154.24      0.00      0.00
                                0.00   7154.24      0.00
                                0.00      0.00  -6068.53

     exc-cor stress (kbar)  -2735.11      0.00      0.00
                                0.00  -2735.11      0.00
                                0.00      0.00  -3012.78

     corecor stress (kbar)      0.00      0.00      0.00
                                0.00      0.00      0.00
                                0.00      0.00      0.00

     ewald   stress (kbar)   3205.56     -0.02      0.00
                               -0.02   3205.53      0.00
                                0.00      0.00 -27645.45

     hubbard stress (kbar)      0.00      0.00      0.00
                                0.00      0.00      0.00
                                0.00      0.00      0.00

     DFT-D   stress (kbar)      0.00      0.00      0.00
                                0.00      0.00      0.00
                                0.00      0.00      0.00

     XDM     stress (kbar)      0.00      0.00      0.00
                                0.00      0.00      0.00
                                0.00      0.00      0.00

     dft-nl  stress (kbar)      4.79      0.00      0.00
                                0.00      4.79      0.00
                                0.00      0.00     69.02

     TS-vdW  stress (kbar)      0.00      0.00      0.00
                                0.00      0.00      0.00
                                0.00      0.00      0.00


     Energy error            =      7.0E-04
     Gradient error          =      1.4E-22
     Cell gradient error     =      1.3E-04


     number of scf cycles    =   4
     number of bfgs steps    =   3

     enthalpy old            =     -45.9901135575 Ry
     enthalpy new            =     -45.9908136091 Ry

     CASE: enthalpy_new < enthalpy_old

     new trust radius        =       0.0783762528 bohr
     new conv_thr            =            1.0E-11 Ry

     new unit-cell volume =    243.10927 a.u.^3 (    36.02508 Ang^3 )
     density =      2.21454 g/cm^3

CELL_PARAMETERS (alat=  4.66006462)
   1.001418037   0.000000000  -0.000000000
  -0.500709018   0.867253460   0.000000000
   0.000000000  -0.000000000   2.766076949

ATOMIC_POSITIONS (crystal)
C             0.0000000000        1.0000000000        0.7500000000
C             0.6666670000        0.3333330000        0.7500000000
C             0.0000000000        1.0000000000        0.2500000000
C             0.3333330000        0.6666670000        0.2500000000



     Writing output data file ./tmp/graphite.save/
     NEW-OLD atomic charge density approx. for the potential


     -----------------------------------------------
     Non-local corr. energy    =       0.15020904 Ry
     -----------------------------------------------

     extrapolated charge   16.37262, renormalised to   16.00000

     total cpu time spent up to now is       19.1 secs

     Self-consistent Calculation

     iteration #  1     ecut=    30.00 Ry     beta= 0.30
     Davidson diagonalization with overlap
     ethr =  1.00E-06,  avg # of iterations =  8.0


     -----------------------------------------------
     Non-local corr. energy    =       0.14612409 Ry
     -----------------------------------------------


     total cpu time spent up to now is       19.2 secs

     total energy              =     -45.98562535 Ry
     estimated scf accuracy    <       0.00243822 Ry

     iteration #  2     ecut=    30.00 Ry     beta= 0.30
     Davidson diagonalization with overlap
     ethr =  1.52E-05,  avg # of iterations =  5.8


     -----------------------------------------------
     Non-local corr. energy    =       0.14653017 Ry
     -----------------------------------------------


     total cpu time spent up to now is       19.3 secs

     total energy              =     -45.99152902 Ry
     estimated scf accuracy    <       0.00119656 Ry

     iteration #  3     ecut=    30.00 Ry     beta= 0.30
     Davidson diagonalization with overlap
     ethr =  7.48E-06,  avg # of iterations =  1.0


     -----------------------------------------------
     Non-local corr. energy    =       0.14809319 Ry
     -----------------------------------------------


     total cpu time spent up to now is       19.3 secs

     total energy              =     -45.99107482 Ry
     estimated scf accuracy    <       0.00068239 Ry

     iteration #  4     ecut=    30.00 Ry     beta= 0.30
     Davidson diagonalization with overlap
     ethr =  4.26E-06,  avg # of iterations =  2.7


     -----------------------------------------------
     Non-local corr. energy    =       0.14777276 Ry
     -----------------------------------------------


     total cpu time spent up to now is       19.4 secs

     total energy              =     -45.99125527 Ry
[...]
         3           C   tau(   3) = (  0.0000000  1.0000000  0.2500000  )
         4           C   tau(   4) = (  0.3333330  0.6666670  0.2500000  )

     number of k points=     6  Marzari-Vanderbilt smearing, width (Ry)=  0.0200
                       cart. coord. in units 2pi/alat
        k(    1) = (   0.1248269   0.2162065   0.0900366), wk =   0.2500000
        k(    2) = (   0.1248269   0.5044818   0.0900366), wk =   0.5000000
        k(    3) = (   0.1248269  -0.3603441   0.0900366), wk =   0.5000000
        k(    4) = (   0.1248269  -0.0720688   0.0900366), wk =   0.2500000
        k(    5) = (   0.3744806   0.6486194   0.0900366), wk =   0.2500000
        k(    6) = (   0.3744806  -0.2162065   0.0900366), wk =   0.2500000

                       cryst. coord.
        k(    1) = (   0.1250000   0.1250000   0.2500000), wk =   0.2500000
        k(    2) = (   0.1250000   0.3750000   0.2500000), wk =   0.5000000
        k(    3) = (   0.1250000  -0.3750000   0.2500000), wk =   0.5000000
        k(    4) = (   0.1250000  -0.1250000   0.2500000), wk =   0.2500000
        k(    5) = (   0.3750000   0.3750000   0.2500000), wk =   0.2500000
        k(    6) = (   0.3750000  -0.3750000   0.2500000), wk =   0.2500000

     Dense  grid:    15387 G-vectors     FFT dimensions: (  24,  24,  64)

     Smooth grid:     5391 G-vectors     FFT dimensions: (  18,  18,  48)

     Dynamical RAM for                 wfc:       0.02 MB

     Dynamical RAM for     wfc (w. buffer):       0.11 MB

     Dynamical RAM for           str. fact:       0.03 MB

     Dynamical RAM for           local pot:       0.01 MB

     Dynamical RAM for          nlocal pot:       0.04 MB

     Dynamical RAM for                qrad:       0.71 MB

     Dynamical RAM for          rho,v,vnew:       0.19 MB

     Dynamical RAM for               rhoin:       0.06 MB

     Dynamical RAM for            rho*nmix:       0.47 MB

     Dynamical RAM for           G-vectors:       0.12 MB

     Dynamical RAM for          h,s,v(r/c):       0.03 MB

     Dynamical RAM for          <psi|beta>:       0.01 MB

     Dynamical RAM for                 psi:       0.03 MB

     Dynamical RAM for                hpsi:       0.03 MB

     Dynamical RAM for                spsi:       0.03 MB

     Dynamical RAM for      wfcinit/wfcrot:       0.05 MB

     Dynamical RAM for           addusdens:       1.38 MB

     Dynamical RAM for          addusforce:       1.57 MB

     Dynamical RAM for         addusstress:       1.47 MB

     Estimated static dynamical RAM per process >       1.98 MB

     Estimated max dynamical RAM per process >       3.56 MB

     Estimated total dynamical RAM >      28.44 MB

     Initial potential from superposition of free atoms

     starting charge   15.99979, renormalised to   16.00000


     -----------------------------------------------
     Non-local corr. energy    =       0.11842656 Ry
     -----------------------------------------------

     Starting wfcs are   16 randomized atomic wfcs

     total cpu time spent up to now is       20.9 secs

     Self-consistent Calculation

     iteration #  1     ecut=    30.00 Ry     beta= 0.30
     Davidson diagonalization with overlap
     c_bands:  1 eigenvalues not converged
     ethr =  1.00E-06,  avg # of iterations = 14.2


     -----------------------------------------------
     Non-local corr. energy    =       0.13084818 Ry
     -----------------------------------------------


     total cpu time spent up to now is       21.0 secs

     total energy              =     -46.03529727 Ry
     estimated scf accuracy    <       0.45197977 Ry

     iteration #  2     ecut=    30.00 Ry     beta= 0.30
     Davidson diagonalization with overlap
     ethr =  2.82E-03,  avg # of iterations =  1.0


     -----------------------------------------------
     Non-local corr. energy    =       0.14925182 Ry
     -----------------------------------------------


     total cpu time spent up to now is       21.0 secs

     total energy              =     -45.96507398 Ry
     estimated scf accuracy    <       0.15364590 Ry

     iteration #  3     ecut=    30.00 Ry     beta= 0.30
     Davidson diagonalization with overlap
     ethr =  9.60E-04,  avg # of iterations =  3.3


     -----------------------------------------------
     Non-local corr. energy    =       0.14551816 Ry
     -----------------------------------------------


     total cpu time spent up to now is       21.1 secs

     total energy              =     -45.99155235 Ry
     estimated scf accuracy    <       0.00355656 Ry

     iteration #  4     ecut=    30.00 Ry     beta= 0.30
     Davidson diagonalization with overlap
     ethr =  2.22E-05,  avg # of iterations =  4.0


     -----------------------------------------------
     Non-local corr. energy    =       0.14760245 Ry
     -----------------------------------------------


     total cpu time spent up to now is       21.2 secs

     total energy              =     -45.99143105 Ry
     estimated scf accuracy    <       0.00201799 Ry

     iteration #  5     ecut=    30.00 Ry     beta= 0.30
     Davidson diagonalization with overlap
     ethr =  1.26E-05,  avg # of iterations =  2.2


     -----------------------------------------------
     Non-local corr. energy    =       0.14776087 Ry
     -----------------------------------------------


     total cpu time spent up to now is       21.2 secs

     total energy              =     -45.99172353 Ry
     estimated scf accuracy    <       0.00001300 Ry

     iteration #  6     ecut=    30.00 Ry     beta= 0.30
     Davidson diagonalization with overlap
     ethr =  8.12E-08,  avg # of iterations =  4.2


     -----------------------------------------------
     Non-local corr. energy    =       0.14779792 Ry
     -----------------------------------------------


     total cpu time spent up to now is       21.3 secs

     total energy              =     -45.99172979 Ry
     estimated scf accuracy    <       0.00000101 Ry

     iteration #  7     ecut=    30.00 Ry     beta= 0.30
     Davidson diagonalization with overlap
     ethr =  6.34E-09,  avg # of iterations =  2.0


     -----------------------------------------------
     Non-local corr. energy    =       0.14783275 Ry
     -----------------------------------------------


     total cpu time spent up to now is       21.3 secs

     total energy              =     -45.99173047 Ry
     estimated scf accuracy    <       0.00000014 Ry

     iteration #  8     ecut=    30.00 Ry     beta= 0.30
     Davidson diagonalization with overlap
     ethr =  8.58E-10,  avg # of iterations =  2.0


     -----------------------------------------------
     Non-local corr. energy    =       0.14780807 Ry
     -----------------------------------------------


     total cpu time spent up to now is       21.4 secs

     total energy              =     -45.99173070 Ry
     estimated scf accuracy    <       0.00000013 Ry

     iteration #  9     ecut=    30.00 Ry     beta= 0.30
     Davidson diagonalization with overlap
     ethr =  8.40E-10,  avg # of iterations =  2.0


     -----------------------------------------------
     Non-local corr. energy    =       0.14781363 Ry
     -----------------------------------------------


     total cpu time spent up to now is       21.4 secs

     total energy              =     -45.99173083 Ry
     estimated scf accuracy    <          9.8E-09 Ry

     iteration # 10     ecut=    30.00 Ry     beta= 0.30
     Davidson diagonalization with overlap
     ethr =  6.11E-11,  avg # of iterations =  2.0


     -----------------------------------------------
     Non-local corr. energy    =       0.14781305 Ry
     -----------------------------------------------


     total cpu time spent up to now is       21.5 secs

     total energy              =     -45.99173089 Ry
     estimated scf accuracy    <          6.9E-11 Ry

     iteration # 11     ecut=    30.00 Ry     beta= 0.30
     Davidson diagonalization with overlap
     ethr =  4.29E-13,  avg # of iterations =  2.3


     -----------------------------------------------
     Non-local corr. energy    =       0.14781310 Ry
     -----------------------------------------------


     total cpu time spent up to now is       21.5 secs

     total energy              =     -45.99173091 Ry
     estimated scf accuracy    <          1.5E-11 Ry

     iteration # 12     ecut=    30.00 Ry     beta= 0.30
     Davidson diagonalization with overlap
     ethr =  1.00E-13,  avg # of iterations =  2.0


     -----------------------------------------------
     Non-local corr. energy    =       0.14781321 Ry
     -----------------------------------------------


     total cpu time spent up to now is       21.6 secs

     End of self-consistent calculation

          k = 0.1248 0.2162 0.0900 (   673 PWs)   bands (ev):

   -11.7437 -11.5721  -0.1505   0.2762   0.3017   1.0743   1.3796   1.3972
    12.5122  14.6508  14.8994  15.8478

     occupation numbers 
     1.0000   1.0000   1.0000   1.0000   1.0000   1.0000   1.0000   1.0000
     0.0000   0.0000   0.0000   0.0000

          k = 0.1248 0.5045 0.0900 (   681 PWs)   bands (ev):

    -8.2865  -8.1607  -5.3812  -5.2880  -0.8525  -0.8062   3.7501   4.5356
     8.6655   9.1888  15.5476  15.8209

     occupation numbers 
     1.0000   1.0000   1.0000   1.0000   1.0000   1.0000   1.0000   1.0000
     0.0000   0.0000   0.0000   0.0000

          k = 0.1248-0.3603 0.0900 (   681 PWs)   bands (ev):

   -10.3178 -10.1631  -2.4551  -2.3911  -0.0964  -0.0582   1.5426   2.6572
    11.6084  12.0377  14.2542  15.9084

     occupation numbers 
     1.0000   1.0000   1.0000   1.0000   1.0000   1.0000   1.0000   1.0000
     0.0000   0.0000   0.0000   0.0000

          k = 0.1248-0.0721 0.0900 (   660 PWs)   bands (ev):

   -12.4690 -12.2887  -1.0280   0.2409   2.0377   2.0649   2.7051   2.7247
    11.6272  15.0671  15.1754  15.6089

     occupation numbers 
     1.0000   1.0000   1.0000   1.0000   1.0000   1.0000   1.0000   1.0000
     0.0000   0.0000   0.0000   0.0000

          k = 0.3745 0.6486 0.0900 (   680 PWs)   bands (ev):

    -6.7408  -6.6794  -5.7864  -5.7631  -3.0494  -2.9928   5.4113   5.8479
     7.6250   7.7138  17.3402  17.4433

     occupation numbers 
     1.0000   1.0000   1.0000   1.0000   1.0000   1.0000   1.0105   0.9895
     0.0000   0.0000   0.0000   0.0000

          k = 0.3745-0.2162 0.0900 (   677 PWs)   bands (ev):

    -9.6201  -9.4741  -4.1027  -4.0145   0.4679   0.4986   2.3174   3.3387
    10.1374  10.7736  14.2455  14.4448

     occupation numbers 
     1.0000   1.0000   1.0000   1.0000   1.0000   1.0000   1.0000   1.0000
     0.0000   0.0000   0.0000   0.0000

     the Fermi energy is     6.0912 ev

!    total energy              =     -45.99173094 Ry
     estimated scf accuracy    <          1.9E-12 Ry
     smearing contrib. (-TS)   =       0.00050458 Ry
     internal energy E=F+TS    =     -45.99223551 Ry

     The total energy is F=E-TS. E is the sum of the following terms:
     one-electron contribution =     -12.77179136 Ry
     hartree contribution      =      14.24291373 Ry
     xc contribution           =     -14.50833002 Ry
     ewald contribution        =     -32.95502787 Ry

     convergence has been achieved in  12 iterations

     Forces acting on atoms (cartesian axes, Ry/au):

     atom    1 type  1   force =    -0.00000000   -0.00000000    0.00000000
     atom    2 type  1   force =     0.00000000    0.00000000    0.00000000
     atom    3 type  1   force =     0.00000000   -0.00000000   -0.00000000
     atom    4 type  1   force =    -0.00000000    0.00000000   -0.00000000
     The non-local contrib.  to forces
     atom    1 type  1   force =     0.00000000    0.00000000    0.00000000
     atom    2 type  1   force =    -0.00000000   -0.00000000    0.00000000
     atom    3 type  1   force =     0.00000000    0.00000000    0.00000000
     atom    4 type  1   force =     0.00000000   -0.00000000   -0.00000000
     The ionic contribution  to forces
     atom    1 type  1   force =     0.00000850   -0.00000491   -0.00000000
     atom    2 type  1   force =    -0.00000852    0.00000492   -0.00000000
     atom    3 type  1   force =    -0.00000850    0.00000491    0.00000000
     atom    4 type  1   force =     0.00000852   -0.00000492    0.00000000
     The local contribution  to forces
     atom    1 type  1   force =    -0.00000000    0.00000000    0.00000000
     atom    2 type  1   force =    -0.00000834    0.00000481    0.00000000
     atom    3 type  1   force =     0.00000000   -0.00000000    0.00000000
     atom    4 type  1   force =     0.00000834   -0.00000481    0.00000000
     The core correction contribution to forces
     atom    1 type  1   force =     0.00000000    0.00000000    0.00000000
     atom    2 type  1   force =     0.00000000    0.00000000    0.00000000
     atom    3 type  1   force =     0.00000000    0.00000000    0.00000000
     atom    4 type  1   force =     0.00000000    0.00000000    0.00000000
     The Hubbard contrib.    to forces
     atom    1 type  1   force =     0.00000000    0.00000000    0.00000000
     atom    2 type  1   force =     0.00000000    0.00000000    0.00000000
     atom    3 type  1   force =     0.00000000    0.00000000    0.00000000
     atom    4 type  1   force =     0.00000000    0.00000000    0.00000000
     The SCF correction term to forces
     atom    1 type  1   force =    -0.00000000    0.00000000    0.00000000
     atom    2 type  1   force =     0.00000000   -0.00000000    0.00000000
     atom    3 type  1   force =     0.00000000   -0.00000000    0.00000000
     atom    4 type  1   force =    -0.00000000    0.00000000   -0.00000000

     Total force =     0.000000     Total SCF correction =     0.000000


     Computing stress (Cartesian axis) and pressure

          total   stress  (Ry/bohr**3)                   (kbar)     P=        2.86
   0.00000747  -0.00000000  -0.00000000            1.10       -0.00       -0.00
  -0.00000000   0.00000747  -0.00000000           -0.00        1.10       -0.00
  -0.00000000  -0.00000000   0.00004329           -0.00       -0.00        6.37

     kinetic stress (kbar)  10368.61     -0.00     -0.00
                               -0.00  10368.61     -0.00
                               -0.00     -0.00  11999.20

     local   stress (kbar) -18724.50      0.01     -0.00
                                0.01 -18724.48     -0.00
                               -0.00     -0.00  25529.13

     nonloc. stress (kbar)   -448.62      0.00      0.00
                                0.00   -448.62      0.00
                                0.00      0.00   -451.40

     hartree stress (kbar)   7530.63      0.00     -0.00
                                0.00   7530.63     -0.00
                               -0.00     -0.00  -6475.17

     exc-cor stress (kbar)  -2661.85      0.00     -0.00
                                0.00  -2661.85     -0.00
                               -0.00     -0.00  -2933.67

     corecor stress (kbar)      0.00      0.00      0.00
                                0.00      0.00      0.00
                                0.00      0.00      0.00

     ewald   stress (kbar)   3932.35     -0.02      0.00
                               -0.02   3932.32     -0.00
                                0.00     -0.00 -27731.02

     hubbard stress (kbar)      0.00      0.00      0.00
                                0.00      0.00      0.00
                                0.00      0.00      0.00

     DFT-D   stress (kbar)      0.00      0.00      0.00
                                0.00      0.00      0.00
                                0.00      0.00      0.00

     XDM     stress (kbar)      0.00      0.00      0.00
                                0.00      0.00      0.00
                                0.00      0.00      0.00

     dft-nl  stress (kbar)      4.48      0.00      0.00
                                0.00      4.48     -0.00
                                0.00     -0.00     69.31

     TS-vdW  stress (kbar)      0.00      0.00      0.00
                                0.00      0.00      0.00
                                0.00      0.00      0.00



     Writing output data file ./tmp/graphite.save/
 
     init_run     :     16.33s CPU     16.35s WALL (       2 calls)
     electrons    :      3.95s CPU      4.50s WALL (       7 calls)
     update_pot   :      0.19s CPU      0.20s WALL (       5 calls)
     forces       :      0.08s CPU      0.08s WALL (       7 calls)
     stress       :      0.39s CPU      0.43s WALL (       7 calls)

     Called by init_run:
     wfcinit      :      0.02s CPU      0.03s WALL (       2 calls)
     wfcinit:atom :      0.00s CPU      0.00s WALL (      12 calls)
     wfcinit:wfcr :      0.02s CPU      0.03s WALL (      12 calls)
     potinit      :     16.23s CPU     16.25s WALL (       2 calls)
     hinit0       :      0.06s CPU      0.06s WALL (       2 calls)

     Called by electrons:
     c_bands      :      2.14s CPU      2.46s WALL (      76 calls)
     sum_band     :      0.47s CPU      0.51s WALL (      76 calls)
     v_of_rho     :     17.49s CPU     17.65s WALL (      83 calls)
     v_h          :      0.01s CPU      0.01s WALL (      83 calls)
     v_xc         :     17.48s CPU     17.64s WALL (      83 calls)
     newd         :      0.09s CPU      0.13s WALL (      83 calls)
     mix_rho      :      0.03s CPU      0.03s WALL (      76 calls)
     vdW_kernel   :     16.18s CPU     16.19s WALL (       1 calls)

     Called by c_bands:
     init_us_2    :      0.02s CPU      0.02s WALL (    1008 calls)
     cegterg      :      2.07s CPU      2.39s WALL (     456 calls)

     Called by sum_band:
     sum_band:wei :      0.00s CPU      0.00s WALL (      76 calls)
     sum_band:loo :      0.34s CPU      0.37s WALL (      76 calls)
     sum_band:buf :      0.00s CPU      0.00s WALL (     456 calls)
     sum_band:ini :      0.01s CPU      0.01s WALL (     456 calls)
     sum_band:cal :      0.02s CPU      0.02s WALL (     456 calls)
     sum_band:bec :      0.00s CPU      0.00s WALL (     456 calls)
     addusdens    :      0.07s CPU      0.08s WALL (      76 calls)
     addusd:skk   :      0.00s CPU      0.00s WALL (      76 calls)
     addusd:dgemm :      0.02s CPU      0.02s WALL (      76 calls)
     addusd:qvan2 :      0.04s CPU      0.04s WALL (      76 calls)

     Called by *egterg:
     cdiaghg      :      0.25s CPU      0.28s WALL (    1742 calls)
     cegterg:over :      0.06s CPU      0.07s WALL (    1316 calls)
     cegterg:upda :      0.01s CPU      0.01s WALL (    1316 calls)
     cegterg:last :      0.02s CPU      0.02s WALL (     989 calls)
     h_psi        :      1.66s CPU      1.92s WALL (    1784 calls)
     s_psi        :      0.02s CPU      0.02s WALL (    1784 calls)
     g_psi        :      0.01s CPU      0.01s WALL (    1316 calls)

     Called by h_psi:
     h_psi:calbec :      0.06s CPU      0.07s WALL (    1784 calls)
     vloc_psi     :      1.56s CPU      1.81s WALL (    1784 calls)
     add_vuspsi   :      0.02s CPU      0.02s WALL (    1784 calls)

     General routines
     calbec       :      0.09s CPU      0.10s WALL (    2450 calls)
     fft          :      0.72s CPU      0.79s WALL (    5584 calls)
     ffts         :      0.01s CPU      0.01s WALL (     159 calls)
     fftw         :      1.77s CPU      2.04s WALL (   36240 calls)
     interpolate  :      0.01s CPU      0.02s WALL (      83 calls)
 
     Parallel routines
     fft_scatt_xy :      0.15s CPU      0.17s WALL (   41983 calls)
     fft_scatt_yz :      1.29s CPU      1.48s WALL (   41983 calls)
 
     PWSCF        :     21.00s CPU     21.65s WALL

 
   This run was terminated on:  17:45: 1  16Apr2021            

=------------------------------------------------------------------------------=
   JOB DONE.
=------------------------------------------------------------------------------=
