
     Program PWSCF v.6.7MaX starts on 16Apr2021 at 17:48:41 

     This program is part of the open-source Quantum ESPRESSO suite
     for quantum simulation of materials; please cite
         "P. Giannozzi et al., J. Phys.:Condens. Matter 21 395502 (2009);
         "P. Giannozzi et al., J. Phys.:Condens. Matter 29 465901 (2017);
          URL http://www.quantum-espresso.org", 
     in publications or presentations arising from this work. More details at
     http://www.quantum-espresso.org/quote

     Parallel version (MPI), running on     8 processors

     MPI processes distributed on     1 nodes
     R & G space division:  proc/nbgrp/npool/nimage =       8
     Waiting for input...
     Reading input from standard input

     Current dimensions of program PWSCF are:
     Max number of different atomic species (ntypx) = 10
     Max number of k-points (npk) =  40000
     Max angular momentum in pseudopotentials (lmaxx) =  3
     file C.pbe-rrkjus.UPF: wavefunction(s)  2S 2P renormalized

     --------------------------------------------
     Parameters for DFT-D3 Dispersion Correction:
     --------------------------------------------
       Reference C6 values for interpolation: 

         atom   Coordination number   C6
         C          0.000            98.23
         C          0.987            86.49
         C          1.998            58.72
         C          2.999            51.56
         C          3.984            36.41

       Values used:

         atom   Coordination number  R0_AB[au]  C6      C8
         C          3.329            2.750     47.98   1387.69
         C          3.328            2.750     48.00   1388.22
         C          3.329            2.750     47.98   1387.69
         C          3.328            2.750     48.00   1388.22

         Molecular C6 ( Ry / a.u.^6 ) =       767.84


     Subspace diagonalization in iterative solution of the eigenvalue problem:
     a serial algorithm will be used

 
     Parallelization info
     --------------------
     sticks:   dense  smooth     PW     G-vecs:    dense   smooth      PW
     Min          45      22      7                 1787      630     127
     Max          46      24      8                 1796      634     134
     Sum         361     187     61                14339     5053    1045
 


     bravais-lattice index     =            4
     lattice parameter (alat)  =       4.6601  a.u.
     unit-cell volume          =     227.8448 (a.u.)^3
     number of atoms/cell      =            4
     number of atomic types    =            1
     number of electrons       =        16.00
     number of Kohn-Sham states=           12
     kinetic-energy cutoff     =      30.0000  Ry
     charge density cutoff     =     240.0000  Ry
     scf convergence threshold =      1.0E-09
     mixing beta               =       0.3000
     number of iterations used =            8  plain     mixing
     energy convergence thresh.=      1.0E-05
     force convergence thresh. =      1.0E-04
     press convergence thresh. =      5.0E-01
     Exchange-correlation=  SLA  PW   PBE  PBE
                           (   1   4   3   4   0   0   0)
     nstep                     =           50


     celldm(1)=   4.660065  celldm(2)=   0.000000  celldm(3)=   2.599757
     celldm(4)=   0.000000  celldm(5)=   0.000000  celldm(6)=   0.000000

     crystal axes: (cart. coord. in units of alat)
               a(1) = (   1.000000   0.000000   0.000000 )  
               a(2) = (  -0.500000   0.866025   0.000000 )  
               a(3) = (   0.000000   0.000000   2.599757 )  

     reciprocal axes: (cart. coord. in units 2 pi/alat)
               b(1) = (  1.000000  0.577350  0.000000 )  
               b(2) = (  0.000000  1.154701  0.000000 )  
               b(3) = (  0.000000  0.000000  0.384651 )  


     PseudoPot. # 1 for C  read from file:
     ../../pseudo/C.pbe-rrkjus.UPF
     MD5 check sum: 00fb224312de0c5b6853bd333518df6f
     Pseudo is Ultrasoft, Zval =  4.0
     Generated by new atomic code, or converted to UPF format
     Using radial grid of  627 points,  4 beta functions with: 
                l(1) =   0
                l(2) =   0
                l(3) =   1
                l(4) =   1
     Q(r) pseudized with 0 coefficients 


     atomic species   valence    mass     pseudopotential
        C              4.00    12.01100     C ( 1.00)

     24 Sym. Ops., with inversion, found (12 have fractional translation)


                                    s                        frac. trans.

      isym =  1     identity                                     

 cryst.   s( 1) = (     1          0          0      )
                  (     0          1          0      )
                  (     0          0          1      )

 cart.    s( 1) = (  1.0000000  0.0000000  0.0000000 )
                  (  0.0000000  1.0000000  0.0000000 )
                  (  0.0000000  0.0000000  1.0000000 )


      isym =  2     180 deg rotation - cart. axis [0,0,1]        

 cryst.   s( 2) = (    -1          0          0      )    f =(  0.0000000 )
                  (     0         -1          0      )       (  0.0000000 )
                  (     0          0          1      )       (  0.5000000 )

 cart.    s( 2) = ( -1.0000000  0.0000000  0.0000000 )    f =(  0.0000000 )
                  (  0.0000000 -1.0000000  0.0000000 )       (  0.0000000 )
                  (  0.0000000  0.0000000  1.0000000 )       (  1.2998783 )


      isym =  3     180 deg rotation - cart. axis [0,1,0]        

 cryst.   s( 3) = (    -1          0          0      )    f =(  0.0000000 )
                  (     1          1          0      )       (  0.0000000 )
                  (     0          0         -1      )       (  0.5000000 )

 cart.    s( 3) = ( -1.0000000  0.0000000  0.0000000 )    f =(  0.0000000 )
                  (  0.0000000  1.0000000  0.0000000 )       (  0.0000000 )
                  (  0.0000000  0.0000000 -1.0000000 )       (  1.2998783 )


      isym =  4     180 deg rotation - cart. axis [1,0,0]        

 cryst.   s( 4) = (     1          0          0      )
                  (    -1         -1          0      )
                  (     0          0         -1      )

 cart.    s( 4) = (  1.0000000  0.0000000  0.0000000 )
                  (  0.0000000 -1.0000000  0.0000000 )
                  (  0.0000000  0.0000000 -1.0000000 )


      isym =  5      60 deg rotation - cryst. axis [0,0,1]       

 cryst.   s( 5) = (     1          1          0      )    f =(  0.0000000 )
                  (    -1          0          0      )       (  0.0000000 )
                  (     0          0          1      )       (  0.5000000 )

 cart.    s( 5) = (  0.5000000 -0.8660254  0.0000000 )    f =(  0.0000000 )
                  (  0.8660254  0.5000000  0.0000000 )       (  0.0000000 )
                  (  0.0000000  0.0000000  1.0000000 )       (  1.2998783 )


      isym =  6      60 deg rotation - cryst. axis [0,0,-1]      

 cryst.   s( 6) = (     0         -1          0      )    f =(  0.0000000 )
                  (     1          1          0      )       (  0.0000000 )
                  (     0          0          1      )       (  0.5000000 )

 cart.    s( 6) = (  0.5000000  0.8660254  0.0000000 )    f =(  0.0000000 )
                  ( -0.8660254  0.5000000  0.0000000 )       (  0.0000000 )
                  (  0.0000000  0.0000000  1.0000000 )       (  1.2998783 )


      isym =  7     120 deg rotation - cryst. axis [0,0,1]       

 cryst.   s( 7) = (     0          1          0      )
                  (    -1         -1          0      )
                  (     0          0          1      )

 cart.    s( 7) = ( -0.5000000 -0.8660254  0.0000000 )
                  (  0.8660254 -0.5000000  0.0000000 )
                  (  0.0000000  0.0000000  1.0000000 )


      isym =  8     120 deg rotation - cryst. axis [0,0,-1]      

 cryst.   s( 8) = (    -1         -1          0      )
                  (     1          0          0      )
                  (     0          0          1      )

 cart.    s( 8) = ( -0.5000000  0.8660254  0.0000000 )
                  ( -0.8660254 -0.5000000  0.0000000 )
                  (  0.0000000  0.0000000  1.0000000 )


      isym =  9     180 deg rotation - cryst. axis [1,-1,0]      

 cryst.   s( 9) = (     0         -1          0      )    f =(  0.0000000 )
                  (    -1          0          0      )       (  0.0000000 )
                  (     0          0         -1      )       (  0.5000000 )

 cart.    s( 9) = (  0.5000000 -0.8660254  0.0000000 )    f =(  0.0000000 )
                  ( -0.8660254 -0.5000000  0.0000000 )       (  0.0000000 )
                  (  0.0000000  0.0000000 -1.0000000 )       (  1.2998783 )


      isym = 10     180 deg rotation - cryst. axis [2,1,0]       

 cryst.   s(10) = (     1          1          0      )    f =(  0.0000000 )
                  (     0         -1          0      )       (  0.0000000 )
                  (     0          0         -1      )       (  0.5000000 )

 cart.    s(10) = (  0.5000000  0.8660254  0.0000000 )    f =(  0.0000000 )
                  (  0.8660254 -0.5000000  0.0000000 )       (  0.0000000 )
                  (  0.0000000  0.0000000 -1.0000000 )       (  1.2998783 )


      isym = 11     180 deg rotation - cryst. axis [0,1,0]       

 cryst.   s(11) = (    -1         -1          0      )
                  (     0          1          0      )
                  (     0          0         -1      )

 cart.    s(11) = ( -0.5000000 -0.8660254  0.0000000 )
                  ( -0.8660254  0.5000000  0.0000000 )
                  (  0.0000000  0.0000000 -1.0000000 )


      isym = 12     180 deg rotation - cryst. axis [1,1,0]       

 cryst.   s(12) = (     0          1          0      )
                  (     1          0          0      )
                  (     0          0         -1      )

 cart.    s(12) = ( -0.5000000  0.8660254  0.0000000 )
                  (  0.8660254  0.5000000  0.0000000 )
                  (  0.0000000  0.0000000 -1.0000000 )


      isym = 13     inversion                                    

 cryst.   s(13) = (    -1          0          0      )
                  (     0         -1          0      )
                  (     0          0         -1      )

 cart.    s(13) = ( -1.0000000  0.0000000  0.0000000 )
                  (  0.0000000 -1.0000000  0.0000000 )
                  (  0.0000000  0.0000000 -1.0000000 )


      isym = 14     inv. 180 deg rotation - cart. axis [0,0,1]   

 cryst.   s(14) = (     1          0          0      )    f =(  0.0000000 )
                  (     0          1          0      )       (  0.0000000 )
                  (     0          0         -1      )       (  0.5000000 )

 cart.    s(14) = (  1.0000000  0.0000000  0.0000000 )    f =(  0.0000000 )
                  (  0.0000000  1.0000000  0.0000000 )       (  0.0000000 )
                  (  0.0000000  0.0000000 -1.0000000 )       (  1.2998783 )


      isym = 15     inv. 180 deg rotation - cart. axis [0,1,0]   

 cryst.   s(15) = (     1          0          0      )    f =(  0.0000000 )
                  (    -1         -1          0      )       (  0.0000000 )
                  (     0          0          1      )       (  0.5000000 )

 cart.    s(15) = (  1.0000000  0.0000000  0.0000000 )    f =(  0.0000000 )
                  (  0.0000000 -1.0000000  0.0000000 )       (  0.0000000 )
                  (  0.0000000  0.0000000  1.0000000 )       (  1.2998783 )


      isym = 16     inv. 180 deg rotation - cart. axis [1,0,0]   

 cryst.   s(16) = (    -1          0          0      )
                  (     1          1          0      )
                  (     0          0          1      )

 cart.    s(16) = ( -1.0000000  0.0000000  0.0000000 )
                  (  0.0000000  1.0000000  0.0000000 )
                  (  0.0000000  0.0000000  1.0000000 )


      isym = 17     inv.  60 deg rotation - cryst. axis [0,0,1]  

 cryst.   s(17) = (    -1         -1          0      )    f =(  0.0000000 )
                  (     1          0          0      )       (  0.0000000 )
                  (     0          0         -1      )       (  0.5000000 )

 cart.    s(17) = ( -0.5000000  0.8660254  0.0000000 )    f =(  0.0000000 )
                  ( -0.8660254 -0.5000000  0.0000000 )       (  0.0000000 )
                  (  0.0000000  0.0000000 -1.0000000 )       (  1.2998783 )


      isym = 18     inv.  60 deg rotation - cryst. axis [0,0,-1] 

 cryst.   s(18) = (     0          1          0      )    f =(  0.0000000 )
                  (    -1         -1          0      )       (  0.0000000 )
                  (     0          0         -1      )       (  0.5000000 )

 cart.    s(18) = ( -0.5000000 -0.8660254  0.0000000 )    f =(  0.0000000 )
                  (  0.8660254 -0.5000000  0.0000000 )       (  0.0000000 )
                  (  0.0000000  0.0000000 -1.0000000 )       (  1.2998783 )


      isym = 19     inv. 120 deg rotation - cryst. axis [0,0,1]  

 cryst.   s(19) = (     0         -1          0      )
                  (     1          1          0      )
                  (     0          0         -1      )

 cart.    s(19) = (  0.5000000  0.8660254  0.0000000 )
                  ( -0.8660254  0.5000000  0.0000000 )
                  (  0.0000000  0.0000000 -1.0000000 )


      isym = 20     inv. 120 deg rotation - cryst. axis [0,0,-1] 

 cryst.   s(20) = (     1          1          0      )
                  (    -1          0          0      )
                  (     0          0         -1      )

 cart.    s(20) = (  0.5000000 -0.8660254  0.0000000 )
                  (  0.8660254  0.5000000  0.0000000 )
                  (  0.0000000  0.0000000 -1.0000000 )


      isym = 21     inv. 180 deg rotation - cryst. axis [1,-1,0] 

 cryst.   s(21) = (     0          1          0      )    f =(  0.0000000 )
                  (     1          0          0      )       (  0.0000000 )
                  (     0          0          1      )       (  0.5000000 )

 cart.    s(21) = ( -0.5000000  0.8660254  0.0000000 )    f =(  0.0000000 )
                  (  0.8660254  0.5000000  0.0000000 )       (  0.0000000 )
                  (  0.0000000  0.0000000  1.0000000 )       (  1.2998783 )


      isym = 22     inv. 180 deg rotation - cryst. axis [2,1,0]  

 cryst.   s(22) = (    -1         -1          0      )    f =(  0.0000000 )
                  (     0          1          0      )       (  0.0000000 )
                  (     0          0          1      )       (  0.5000000 )

 cart.    s(22) = ( -0.5000000 -0.8660254  0.0000000 )    f =(  0.0000000 )
                  ( -0.8660254  0.5000000  0.0000000 )       (  0.0000000 )
                  (  0.0000000  0.0000000  1.0000000 )       (  1.2998783 )


      isym = 23     inv. 180 deg rotation - cryst. axis [0,1,0]  

 cryst.   s(23) = (     1          1          0      )
                  (     0         -1          0      )
                  (     0          0          1      )

 cart.    s(23) = (  0.5000000  0.8660254  0.0000000 )
                  (  0.8660254 -0.5000000  0.0000000 )
                  (  0.0000000  0.0000000  1.0000000 )


      isym = 24     inv. 180 deg rotation - cryst. axis [1,1,0]  

 cryst.   s(24) = (     0         -1          0      )
                  (    -1          0          0      )
                  (     0          0          1      )

 cart.    s(24) = (  0.5000000 -0.8660254  0.0000000 )
                  ( -0.8660254 -0.5000000  0.0000000 )
                  (  0.0000000  0.0000000  1.0000000 )


     point group D_6h(6/mmm)
     there are 12 classes
     the character table:

       E     2C6   2C3   C2    3C2'  3C2'' i     2S3   2S6   s_h   3s_d  3s_v 
A_1g   1.00  1.00  1.00  1.00  1.00  1.00  1.00  1.00  1.00  1.00  1.00  1.00
A_2g   1.00  1.00  1.00  1.00 -1.00 -1.00  1.00  1.00  1.00  1.00 -1.00 -1.00
B_1g   1.00 -1.00  1.00 -1.00  1.00 -1.00  1.00 -1.00  1.00 -1.00  1.00 -1.00
B_2g   1.00 -1.00  1.00 -1.00 -1.00  1.00  1.00 -1.00  1.00 -1.00 -1.00  1.00
E_1g   2.00  1.00 -1.00 -2.00  0.00  0.00  2.00  1.00 -1.00 -2.00  0.00  0.00
E_2g   2.00 -1.00 -1.00  2.00  0.00  0.00  2.00 -1.00 -1.00  2.00  0.00  0.00
A_1u   1.00  1.00  1.00  1.00  1.00  1.00 -1.00 -1.00 -1.00 -1.00 -1.00 -1.00
A_2u   1.00  1.00  1.00  1.00 -1.00 -1.00 -1.00 -1.00 -1.00 -1.00  1.00  1.00
B_1u   1.00 -1.00  1.00 -1.00  1.00 -1.00 -1.00  1.00 -1.00  1.00 -1.00  1.00
B_2u   1.00 -1.00  1.00 -1.00 -1.00  1.00 -1.00  1.00 -1.00  1.00  1.00 -1.00
E_1u   2.00  1.00 -1.00 -2.00  0.00  0.00 -2.00 -1.00  1.00  2.00  0.00  0.00
E_2u   2.00 -1.00 -1.00  2.00  0.00  0.00 -2.00  1.00  1.00 -2.00  0.00  0.00

     the symmetry operations in each class and the name of the first element:

     E        1
          identity                                               
     2C6      5    6
           60 deg rotation - cryst. axis [0,0,1]                 
     2C3      7    8
          120 deg rotation - cryst. axis [0,0,1]                 
     C2       2
          180 deg rotation - cart. axis [0,0,1]                  
     3C2'     4   12   11
          180 deg rotation - cart. axis [1,0,0]                  
     3C2''    3    9   10
          180 deg rotation - cart. axis [0,1,0]                  
     i       13
          inversion                                              
     2S3     17   18
          inv.  60 deg rotation - cryst. axis [0,0,1]            
     2S6     19   20
          inv. 120 deg rotation - cryst. axis [0,0,1]            
     s_h     14
          inv. 180 deg rotation - cart. axis [0,0,1]             
     3s_d    16   24   23
          inv. 180 deg rotation - cart. axis [1,0,0]             
     3s_v    15   21   22
          inv. 180 deg rotation - cart. axis [0,1,0]             

   Cartesian axes

     site n.     atom                  positions (alat units)
         1           C   tau(   1) = (  -0.5000000   0.8660254   1.9498175  )
         2           C   tau(   2) = (   0.5000005   0.2886748   1.9498175  )
         3           C   tau(   3) = (  -0.5000000   0.8660254   0.6499392  )
         4           C   tau(   4) = (  -0.0000005   0.5773506   0.6499392  )

   Crystallographic axes

     site n.     atom                  positions (cryst. coord.)
         1           C   tau(   1) = (  0.0000000  1.0000000  0.7500000  )
         2           C   tau(   2) = (  0.6666670  0.3333330  0.7500000  )
         3           C   tau(   3) = (  0.0000000  1.0000000  0.2500000  )
         4           C   tau(   4) = (  0.3333330  0.6666670  0.2500000  )

     number of k points=     6  Marzari-Vanderbilt smearing, width (Ry)=  0.0200
                       cart. coord. in units 2pi/alat
        k(    1) = (   0.1250000   0.2165064   0.0961628), wk =   0.2500000
        k(    2) = (   0.1250000   0.5051815   0.0961628), wk =   0.5000000
        k(    3) = (   0.1250000  -0.3608439   0.0961628), wk =   0.5000000
        k(    4) = (   0.1250000  -0.0721688   0.0961628), wk =   0.2500000
        k(    5) = (   0.3750000   0.6495191   0.0961628), wk =   0.2500000
        k(    6) = (   0.3750000  -0.2165064   0.0961628), wk =   0.2500000

                       cryst. coord.
        k(    1) = (   0.1250000   0.1250000   0.2500000), wk =   0.2500000
        k(    2) = (   0.1250000   0.3750000   0.2500000), wk =   0.5000000
        k(    3) = (   0.1250000  -0.3750000   0.2500000), wk =   0.5000000
        k(    4) = (   0.1250000  -0.1250000   0.2500000), wk =   0.2500000
        k(    5) = (   0.3750000   0.3750000   0.2500000), wk =   0.2500000
        k(    6) = (   0.3750000  -0.3750000   0.2500000), wk =   0.2500000

     Dense  grid:    14339 G-vectors     FFT dimensions: (  24,  24,  60)

     Smooth grid:     5053 G-vectors     FFT dimensions: (  18,  18,  48)

     Dynamical RAM for                 wfc:       0.01 MB

     Dynamical RAM for     wfc (w. buffer):       0.10 MB

     Dynamical RAM for           str. fact:       0.03 MB

     Dynamical RAM for           local pot:       0.00 MB

     Dynamical RAM for          nlocal pot:       0.04 MB

     Dynamical RAM for                qrad:       0.71 MB

     Dynamical RAM for          rho,v,vnew:       0.19 MB

     Dynamical RAM for               rhoin:       0.06 MB

     Dynamical RAM for            rho*nmix:       0.44 MB

     Dynamical RAM for           G-vectors:       0.11 MB

     Dynamical RAM for          h,s,v(r/c):       0.03 MB

     Dynamical RAM for          <psi|beta>:       0.01 MB

     Dynamical RAM for                 psi:       0.03 MB

     Dynamical RAM for                hpsi:       0.03 MB

     Dynamical RAM for                spsi:       0.03 MB

     Dynamical RAM for      wfcinit/wfcrot:       0.04 MB

     Dynamical RAM for           addusdens:       1.29 MB

     Dynamical RAM for          addusforce:       1.47 MB

     Dynamical RAM for         addusstress:       1.37 MB

     Estimated static dynamical RAM per process >       1.90 MB

     Estimated max dynamical RAM per process >       3.37 MB

     Estimated total dynamical RAM >      26.97 MB

     Initial potential from superposition of free atoms

     starting charge   15.99979, renormalised to   16.00000
     Starting wfcs are   16 randomized atomic wfcs

     total cpu time spent up to now is        0.1 secs

     Self-consistent Calculation

     iteration #  1     ecut=    30.00 Ry     beta= 0.30
     Davidson diagonalization with overlap
     ethr =  1.00E-02,  avg # of iterations =  2.8

     total cpu time spent up to now is        1.2 secs

     total energy              =     -45.64528347 Ry
     estimated scf accuracy    <       0.36365302 Ry

     iteration #  2     ecut=    30.00 Ry     beta= 0.30
     Davidson diagonalization with overlap
     ethr =  2.27E-03,  avg # of iterations =  1.0

     total cpu time spent up to now is        1.2 secs

     total energy              =     -45.57832668 Ry
     estimated scf accuracy    <       0.13261473 Ry

     iteration #  3     ecut=    30.00 Ry     beta= 0.30
     Davidson diagonalization with overlap
     ethr =  8.29E-04,  avg # of iterations =  3.8

     total cpu time spent up to now is        1.2 secs

     total energy              =     -45.59915712 Ry
     estimated scf accuracy    <       0.00242736 Ry

     iteration #  4     ecut=    30.00 Ry     beta= 0.30
     Davidson diagonalization with overlap
     ethr =  1.52E-05,  avg # of iterations =  4.5

     total cpu time spent up to now is        1.3 secs

     total energy              =     -45.59864043 Ry
     estimated scf accuracy    <       0.00287405 Ry

     iteration #  5     ecut=    30.00 Ry     beta= 0.30
     Davidson diagonalization with overlap
     ethr =  1.52E-05,  avg # of iterations =  2.0

     total cpu time spent up to now is        1.3 secs

     total energy              =     -45.59905366 Ry
     estimated scf accuracy    <       0.00000346 Ry

     iteration #  6     ecut=    30.00 Ry     beta= 0.30
     Davidson diagonalization with overlap
     ethr =  2.16E-08,  avg # of iterations =  4.3

     total cpu time spent up to now is        1.4 secs

     total energy              =     -45.59905553 Ry
     estimated scf accuracy    <       0.00000274 Ry

     iteration #  7     ecut=    30.00 Ry     beta= 0.30
     Davidson diagonalization with overlap
     ethr =  1.71E-08,  avg # of iterations =  2.0

     total cpu time spent up to now is        1.4 secs

     total energy              =     -45.59905614 Ry
     estimated scf accuracy    <       0.00000017 Ry

     iteration #  8     ecut=    30.00 Ry     beta= 0.30
     Davidson diagonalization with overlap
     ethr =  1.07E-09,  avg # of iterations =  2.0

     total cpu time spent up to now is        1.4 secs

     total energy              =     -45.59905625 Ry
     estimated scf accuracy    <       0.00000002 Ry

     iteration #  9     ecut=    30.00 Ry     beta= 0.30
     Davidson diagonalization with overlap
     ethr =  1.35E-10,  avg # of iterations =  2.0

     total cpu time spent up to now is        1.5 secs

     total energy              =     -45.59905629 Ry
     estimated scf accuracy    <          1.3E-09 Ry

     iteration # 10     ecut=    30.00 Ry     beta= 0.30
     Davidson diagonalization with overlap
     ethr =  8.02E-12,  avg # of iterations =  2.0

     total cpu time spent up to now is        1.5 secs

     End of self-consistent calculation

          k = 0.1250 0.2165 0.0962 (   626 PWs)   bands (ev):

   -11.0014 -10.7214   0.4350   1.2761   1.3231   2.0728   2.3541   2.3872
    14.3562  15.4829  15.8579  16.6429

     occupation numbers 
     1.0000   1.0000   1.0000   1.0000   1.0000   1.0000   1.0000   1.0000
     0.0000   0.0000   0.0000   0.0000

          k = 0.1250 0.5052 0.0962 (   635 PWs)   bands (ev):

    -7.4637  -7.2506  -4.5503  -4.3875   0.0511   0.1365   4.4041   5.4742
     9.4208  10.1295  16.2659  16.6790

     occupation numbers 
     1.0000   1.0000   1.0000   1.0000   1.0000   1.0000   1.0000   1.0000
     0.0000   0.0000   0.0000   0.0000

          k = 0.1250-0.3608 0.0962 (   638 PWs)   bands (ev):

    -9.5484  -9.2933  -1.5354  -1.4209   0.8225   0.8942   2.1481   3.6490
    12.3795  12.9928  15.9849  16.6502

     occupation numbers 
     1.0000   1.0000   1.0000   1.0000   1.0000   1.0000   1.0000   1.0000
     0.0000   0.0000   0.0000   0.0000

          k = 0.1250-0.0722 0.0962 (   616 PWs)   bands (ev):

   -11.7394 -11.4467  -0.4507   1.2404   3.0686   3.1201   3.7487   3.7869
    13.5116  15.8213  15.9640  17.5437

     occupation numbers 
     1.0000   1.0000   1.0000   1.0000   1.0000   1.0000   1.0000   1.0000
     0.0000   0.0000   0.0000   0.0000

          k = 0.3750 0.6495 0.0962 (   638 PWs)   bands (ev):

    -5.8379  -5.7326  -4.9231  -4.8786  -2.2601  -2.1546   6.1028   6.7066
     8.4518   8.6141  18.2612  18.4100

     occupation numbers 
     1.0000   1.0000   1.0000   1.0000   1.0000   1.0000   1.0008   0.9992
     0.0000   0.0000   0.0000   0.0000

          k = 0.3750-0.2165 0.0962 (   632 PWs)   bands (ev):

    -8.8352  -8.5926  -3.2428  -3.0891   1.4321   1.4903   2.9374   4.3183
    10.8675  11.7511  14.9205  15.2601

     occupation numbers 
     1.0000   1.0000   1.0000   1.0000   1.0000   1.0000   1.0000   1.0000
     0.0000   0.0000   0.0000   0.0000

     the Fermi energy is     6.9567 ev

!    total energy              =     -45.59905633 Ry
     estimated scf accuracy    <          2.3E-11 Ry
     smearing contrib. (-TS)   =       0.00041727 Ry
     internal energy E=F+TS    =     -45.59947360 Ry

     The total energy is F=E-TS. E is the sum of the following terms:
     one-electron contribution =      -7.69697295 Ry
     hartree contribution      =      12.04982364 Ry
     xc contribution           =     -14.04939780 Ry
     ewald contribution        =     -35.87599557 Ry
     DFT-D3 Dispersion         =      -0.02693092 Ry

     convergence has been achieved in  10 iterations

     Forces acting on atoms (cartesian axes, Ry/au):

     atom    1 type  1   force =     0.00000000    0.00000000    0.00000000
     atom    2 type  1   force =    -0.00000000    0.00000000    0.00000000
     atom    3 type  1   force =     0.00000000    0.00000000    0.00000000
     atom    4 type  1   force =     0.00000000   -0.00000000    0.00000000
     The non-local contrib.  to forces
     atom    1 type  1   force =    -0.00000000   -0.00000000    0.00000000
     atom    2 type  1   force =    -0.00000000   -0.00000000    0.00000000
     atom    3 type  1   force =     0.00000000    0.00000000    0.00000000
     atom    4 type  1   force =    -0.00000000   -0.00000000    0.00000000
     The ionic contribution  to forces
     atom    1 type  1   force =     0.00000852   -0.00000492   -0.00000000
     atom    2 type  1   force =    -0.00000856    0.00000494   -0.00000000
     atom    3 type  1   force =    -0.00000852    0.00000492    0.00000000
     atom    4 type  1   force =     0.00000856   -0.00000494    0.00000000
     The local contribution  to forces
     atom    1 type  1   force =    -0.00000000    0.00000000   -0.00000000
     atom    2 type  1   force =    -0.00000803    0.00000463   -0.00000000
     atom    3 type  1   force =    -0.00000000   -0.00000000    0.00000000
     atom    4 type  1   force =     0.00000803   -0.00000463    0.00000000
     The core correction contribution to forces
     atom    1 type  1   force =     0.00000000    0.00000000    0.00000000
     atom    2 type  1   force =     0.00000000    0.00000000    0.00000000
     atom    3 type  1   force =     0.00000000    0.00000000    0.00000000
     atom    4 type  1   force =     0.00000000    0.00000000    0.00000000
     The Hubbard contrib.    to forces
     atom    1 type  1   force =     0.00000000    0.00000000    0.00000000
     atom    2 type  1   force =     0.00000000    0.00000000    0.00000000
     atom    3 type  1   force =     0.00000000    0.00000000    0.00000000
     atom    4 type  1   force =     0.00000000    0.00000000    0.00000000
     The SCF correction term to forces
     atom    1 type  1   force =    -0.00000000    0.00000000   -0.00000000
     atom    2 type  1   force =     0.00000000   -0.00000000   -0.00000000
     atom    3 type  1   force =     0.00000000   -0.00000000   -0.00000000
     atom    4 type  1   force =    -0.00000000    0.00000000   -0.00000000

     DFT-D3 dispersion contribution to forces:
     atom    1 type  1   force =    -0.00000000    0.00000000   -0.00000000
     atom    2 type  1   force =     0.00000000   -0.00000000   -0.00000000
     atom    3 type  1   force =     0.00000000   -0.00000000    0.00000000
     atom    4 type  1   force =    -0.00000000    0.00000000    0.00000000

     Total force =     0.000000     Total SCF correction =     0.000000

     DFT-D3 dispersion Force =     0.000000


     Computing stress (Cartesian axis) and pressure

          total   stress  (Ry/bohr**3)                   (kbar)     P=       -3.85
  -0.00014868   0.00000000   0.00000000          -21.87        0.00        0.00
   0.00000000  -0.00014868   0.00000000            0.00      -21.87        0.00
  -0.00000000  -0.00000000   0.00021879           -0.00       -0.00       32.19

     kinetic stress (kbar)  11017.08      0.00      0.00
                                0.00  11017.08      0.00
                                0.00      0.00  12794.66

     local   stress (kbar) -16862.72      0.01      0.00
                                0.01 -16862.71     -0.00
                                0.00     -0.00  24154.19

     nonloc. stress (kbar)   -466.71      0.00      0.00
                                0.00   -466.71      0.00
                                0.00      0.00   -468.38

     hartree stress (kbar)   6715.23      0.00      0.00
                                0.00   6715.23      0.00
                                0.00      0.00  -5650.64

     exc-cor stress (kbar)  -2789.17      0.00      0.00
                                0.00  -2789.17      0.00
                                0.00      0.00  -2883.49

     corecor stress (kbar)      0.00      0.00      0.00
                                0.00      0.00      0.00
                                0.00      0.00      0.00

     ewald   stress (kbar)   2365.81     -0.03      0.00
                               -0.03   2365.78     -0.00
                                0.00     -0.00 -27894.47

     hubbard stress (kbar)      0.00      0.00      0.00
                                0.00      0.00      0.00
                                0.00      0.00      0.00

     DFT-D   stress (kbar)     -1.38      0.00     -0.00
                                0.00     -1.38     -0.00
                               -0.00     -0.00    -19.70

     XDM     stress (kbar)      0.00      0.00      0.00
                                0.00      0.00      0.00
                                0.00      0.00      0.00

     dft-nl  stress (kbar)      0.00      0.00      0.00
                                0.00      0.00      0.00
                                0.00      0.00      0.00

     TS-vdW  stress (kbar)      0.00      0.00      0.00
                                0.00      0.00      0.00
                                0.00      0.00      0.00



     BFGS Geometry Optimization
     Energy error            =      0.0E+00
     Gradient error          =      2.8E-22
     Cell gradient error     =      2.2E-04


     number of scf cycles    =   1
     number of bfgs steps    =   0

     enthalpy new            =     -45.5990563253 Ry

     new trust radius        =       0.0165126179 bohr
     new conv_thr            =       0.0000000010 Ry

     new unit-cell volume =    227.39121 a.u.^3 (    33.69590 Ang^3 )
     density =      2.36762 g/cm^3

CELL_PARAMETERS (alat=  4.66006462)
   0.996283084   0.000000000  -0.000000000
  -0.498141542   0.862806460  -0.000000000
   0.000000000   0.000000000   2.613976674

ATOMIC_POSITIONS (crystal)
C             0.0000000000        1.0000000000        0.7500000000
C             0.6666670000        0.3333330000        0.7500000000
C             0.0000000000        1.0000000000        0.2500000000
C             0.3333330000        0.6666670000        0.2500000000



     Writing output data file ./tmp/graphite.save/
     NEW-OLD atomic charge density approx. for the potential
     extrapolated charge   15.96808, renormalised to   16.00000

     total cpu time spent up to now is        4.6 secs

     Self-consistent Calculation

     iteration #  1     ecut=    30.00 Ry     beta= 0.30
     Davidson diagonalization with overlap
     ethr =  1.00E-06,  avg # of iterations =  3.0

     total cpu time spent up to now is        5.6 secs

     total energy              =     -45.59922978 Ry
     estimated scf accuracy    <       0.00011750 Ry

     iteration #  2     ecut=    30.00 Ry     beta= 0.30
     Davidson diagonalization with overlap
     ethr =  7.34E-07,  avg # of iterations =  3.2

     total cpu time spent up to now is        5.7 secs

     total energy              =     -45.59927887 Ry
     estimated scf accuracy    <       0.00000649 Ry

     iteration #  3     ecut=    30.00 Ry     beta= 0.30
     Davidson diagonalization with overlap
     ethr =  4.06E-08,  avg # of iterations =  1.7

     total cpu time spent up to now is        5.7 secs

     total energy              =     -45.59927956 Ry
     estimated scf accuracy    <       0.00000204 Ry

     iteration #  4     ecut=    30.00 Ry     beta= 0.30
     Davidson diagonalization with overlap
     ethr =  1.28E-08,  avg # of iterations =  2.0

     total cpu time spent up to now is        5.7 secs

     total energy              =     -45.59927978 Ry
     estimated scf accuracy    <       0.00000018 Ry

     iteration #  5     ecut=    30.00 Ry     beta= 0.30
     Davidson diagonalization with overlap
     ethr =  1.11E-09,  avg # of iterations =  1.3

     total cpu time spent up to now is        5.8 secs

     total energy              =     -45.59927976 Ry
     estimated scf accuracy    <       0.00000006 Ry

     iteration #  6     ecut=    30.00 Ry     beta= 0.30
     Davidson diagonalization with overlap
     ethr =  3.83E-10,  avg # of iterations =  2.0

     total cpu time spent up to now is        5.8 secs

     End of self-consistent calculation

          k = 0.1255 0.2173 0.0956 (   626 PWs)   bands (ev):

   -11.0548 -10.7873   0.4155   1.2906   1.3346   2.0060   2.3573   2.3884
    14.2802  15.6043  15.9651  16.7450

     occupation numbers 
     1.0000   1.0000   1.0000   1.0000   1.0000   1.0000   1.0000   1.0000
     0.0000   0.0000   0.0000   0.0000

          k = 0.1255 0.5071 0.0956 (   635 PWs)   bands (ev):

    -7.4916  -7.2883  -4.5738  -4.4186   0.0385   0.1189   4.4179   5.4577
     9.4650  10.1587  16.4110  16.8097

     occupation numbers 
     1.0000   1.0000   1.0000   1.0000   1.0000   1.0000   1.0000   1.0000
     0.0000   0.0000   0.0000   0.0000

          k = 0.1255-0.3622 0.0956 (   638 PWs)   bands (ev):

    -9.5924  -9.3490  -1.5363  -1.4278   0.8146   0.8822   2.1433   3.6010
    12.4641  13.0597  15.9417  16.7833

     occupation numbers 
     1.0000   1.0000   1.0000   1.0000   1.0000   1.0000   1.0000   1.0000
     0.0000   0.0000   0.0000   0.0000

          k = 0.1255-0.0724 0.0956 (   616 PWs)   bands (ev):

   -11.7973 -11.5176  -0.4778   1.1646   3.0896   3.1379   3.7673   3.8029
    13.4235  15.9245  16.0633  17.6847

     occupation numbers 
     1.0000   1.0000   1.0000   1.0000   1.0000   1.0000   1.0000   1.0000
     0.0000   0.0000   0.0000   0.0000

          k = 0.3764 0.6519 0.0956 (   638 PWs)   bands (ev):

    -5.8479  -5.7479  -4.9520  -4.9082  -2.2963  -2.1951   6.1315   6.7165
     8.4838   8.6332  18.3078  18.4657

     occupation numbers 
     1.0000   1.0000   1.0000   1.0000   1.0000   1.0000   1.0011   0.9989
     0.0000   0.0000   0.0000   0.0000

          k = 0.3764-0.2173 0.0956 (   632 PWs)   bands (ev):

    -8.8741  -8.6427  -3.2567  -3.1108   1.4278   1.4822   2.9393   4.2806
    10.9325  11.7939  15.0563  15.3781

     occupation numbers 
     1.0000   1.0000   1.0000   1.0000   1.0000   1.0000   1.0000   1.0000
     0.0000   0.0000   0.0000   0.0000

     the Fermi energy is     6.9663 ev

!    total energy              =     -45.59927977 Ry
     estimated scf accuracy    <          9.7E-10 Ry
     smearing contrib. (-TS)   =       0.00042059 Ry
     internal energy E=F+TS    =     -45.59970036 Ry

     The total energy is F=E-TS. E is the sum of the following terms:
     one-electron contribution =      -8.18494151 Ry
     hartree contribution      =      12.30223132 Ry
     xc contribution           =     -14.08023811 Ry
     ewald contribution        =     -35.60998088 Ry
     DFT-D3 Dispersion         =      -0.02677119 Ry

     convergence has been achieved in   6 iterations

     Forces acting on atoms (cartesian axes, Ry/au):

     atom    1 type  1   force =     0.00000000    0.00000000    0.00000000
     atom    2 type  1   force =     0.00000000    0.00000000    0.00000000
     atom    3 type  1   force =     0.00000000    0.00000000    0.00000000
     atom    4 type  1   force =     0.00000000    0.00000000    0.00000000
     The non-local contrib.  to forces
     atom    1 type  1   force =    -0.00000000   -0.00000000    0.00000000
     atom    2 type  1   force =     0.00000000    0.00000000    0.00000000
     atom    3 type  1   force =    -0.00000000   -0.00000000    0.00000000
     atom    4 type  1   force =    -0.00000000    0.00000000    0.00000000
     The ionic contribution  to forces
     atom    1 type  1   force =     0.00000858   -0.00000496   -0.00000000
     atom    2 type  1   force =    -0.00000862    0.00000498   -0.00000000
     atom    3 type  1   force =    -0.00000858    0.00000496    0.00000000
     atom    4 type  1   force =     0.00000862   -0.00000498    0.00000000
     The local contribution  to forces
     atom    1 type  1   force =    -0.00000000    0.00000000    0.00000000
     atom    2 type  1   force =    -0.00000798    0.00000461    0.00000000
     atom    3 type  1   force =    -0.00000000   -0.00000000    0.00000000
     atom    4 type  1   force =     0.00000798   -0.00000461    0.00000000
     The core correction contribution to forces
     atom    1 type  1   force =     0.00000000    0.00000000    0.00000000
     atom    2 type  1   force =     0.00000000    0.00000000    0.00000000
     atom    3 type  1   force =     0.00000000    0.00000000    0.00000000
     atom    4 type  1   force =     0.00000000    0.00000000    0.00000000
     The Hubbard contrib.    to forces
     atom    1 type  1   force =     0.00000000    0.00000000    0.00000000
     atom    2 type  1   force =     0.00000000    0.00000000    0.00000000
     atom    3 type  1   force =     0.00000000    0.00000000    0.00000000
     atom    4 type  1   force =     0.00000000    0.00000000    0.00000000
     The SCF correction term to forces
     atom    1 type  1   force =    -0.00000000    0.00000000    0.00000000
     atom    2 type  1   force =     0.00000000   -0.00000000    0.00000000
     atom    3 type  1   force =     0.00000000   -0.00000000   -0.00000000
     atom    4 type  1   force =    -0.00000000    0.00000000   -0.00000000

     DFT-D3 dispersion contribution to forces:
     atom    1 type  1   force =    -0.00000000    0.00000000   -0.00000000
     atom    2 type  1   force =     0.00000000   -0.00000000   -0.00000000
     atom    3 type  1   force =     0.00000000   -0.00000000    0.00000000
     atom    4 type  1   force =    -0.00000000    0.00000000    0.00000000

     Total force =     0.000000     Total SCF correction =     0.000000

     DFT-D3 dispersion Force =     0.000000


     Computing stress (Cartesian axis) and pressure

          total   stress  (Ry/bohr**3)                   (kbar)     P=       28.15
   0.00018946   0.00000000   0.00000000           27.87        0.00        0.00
   0.00000000   0.00018946   0.00000000            0.00       27.87        0.00
  -0.00000000  -0.00000000   0.00019514           -0.00       -0.00       28.71

     kinetic stress (kbar)  11086.52     -0.00     -0.00
                               -0.00  11086.52     -0.00
                               -0.00     -0.00  12846.41

     local   stress (kbar) -17316.96      0.01      0.00
                                0.01 -17316.95      0.00
                                0.00      0.00  24725.37

     nonloc. stress (kbar)   -477.09     -0.00     -0.00
                               -0.00   -477.09     -0.00
                               -0.00     -0.00   -476.26

     hartree stress (kbar)   6898.95      0.00     -0.00
                                0.00   6898.95     -0.00
                               -0.00     -0.00  -5839.28

     exc-cor stress (kbar)  -2800.86     -0.00     -0.00
                               -0.00  -2800.86      0.00
                               -0.00      0.00  -2896.15

     corecor stress (kbar)      0.00      0.00      0.00
                                0.00      0.00      0.00
                                0.00      0.00      0.00

     ewald   stress (kbar)   2637.22     -0.03      0.00
                               -0.03   2637.19     -0.00
                                0.00     -0.00 -28311.40

     hubbard stress (kbar)      0.00      0.00      0.00
                                0.00      0.00      0.00
                                0.00      0.00      0.00

     DFT-D   stress (kbar)      0.11      0.00     -0.00
                                0.00      0.11      0.00
                               -0.00      0.00    -19.98

     XDM     stress (kbar)      0.00      0.00      0.00
                                0.00      0.00      0.00
                                0.00      0.00      0.00

     dft-nl  stress (kbar)      0.00      0.00      0.00
                                0.00      0.00      0.00
                                0.00      0.00      0.00

     TS-vdW  stress (kbar)      0.00      0.00      0.00
                                0.00      0.00      0.00
                                0.00      0.00      0.00


     Energy error            =      2.2E-04
     Gradient error          =      1.4E-22
     Cell gradient error     =      2.0E-04


     number of scf cycles    =   2
     number of bfgs steps    =   1

     enthalpy old            =     -45.5990563253 Ry
     enthalpy new            =     -45.5992797672 Ry

     CASE: enthalpy_new < enthalpy_old

     new trust radius        =       0.0270053782 bohr
     new conv_thr            =            1.0E-11 Ry

     new unit-cell volume =    229.82034 a.u.^3 (    34.05586 Ang^3 )
     density =      2.34259 g/cm^3

CELL_PARAMETERS (alat=  4.66006462)
   0.997135998  -0.000000000  -0.000000000
  -0.498567999   0.863545105  -0.000000000
   0.000000000   0.000000000   2.637383102

ATOMIC_POSITIONS (crystal)
C            -0.0000000000        1.0000000000        0.7500000000
C             0.6666670000        0.3333330000        0.7500000000
C            -0.0000000000        1.0000000000        0.2500000000
C             0.3333330000        0.6666670000        0.2500000000



     Writing output data file ./tmp/graphite.save/
     NEW-OLD atomic charge density approx. for the potential
     extrapolated charge   16.16911, renormalised to   16.00000

     total cpu time spent up to now is        9.0 secs

     Self-consistent Calculation

     iteration #  1     ecut=    30.00 Ry     beta= 0.30
     Davidson diagonalization with overlap
     c_bands:  1 eigenvalues not converged
     ethr =  1.00E-06,  avg # of iterations =  7.8

     total cpu time spent up to now is       10.0 secs

     total energy              =     -45.59872961 Ry
     estimated scf accuracy    <       0.00045276 Ry

     iteration #  2     ecut=    30.00 Ry     beta= 0.30
     Davidson diagonalization with overlap
     ethr =  2.83E-06,  avg # of iterations =  5.2

     total cpu time spent up to now is       10.0 secs

     total energy              =     -45.59973416 Ry
     estimated scf accuracy    <       0.00015842 Ry

     iteration #  3     ecut=    30.00 Ry     beta= 0.30
     Davidson diagonalization with overlap
     ethr =  9.90E-07,  avg # of iterations =  1.0

     total cpu time spent up to now is       10.1 secs

     total energy              =     -45.59967687 Ry
     estimated scf accuracy    <       0.00009012 Ry

     iteration #  4     ecut=    30.00 Ry     beta= 0.30
     Davidson diagonalization with overlap
     ethr =  5.63E-07,  avg # of iterations =  2.0

     total cpu time spent up to now is       10.1 secs

     total energy              =     -45.59969656 Ry
     estimated scf accuracy    <       0.00000868 Ry

     iteration #  5     ecut=    30.00 Ry     beta= 0.30
     Davidson diagonalization with overlap
     ethr =  5.43E-08,  avg # of iterations =  1.0

     total cpu time spent up to now is       10.1 secs

     total energy              =     -45.59969562 Ry
     estimated scf accuracy    <       0.00000221 Ry

     iteration #  6     ecut=    30.00 Ry     beta= 0.30
     Davidson diagonalization with overlap
     ethr =  1.38E-08,  avg # of iterations =  2.0

     total cpu time spent up to now is       10.2 secs

     total energy              =     -45.59969588 Ry
     estimated scf accuracy    <       0.00000004 Ry

     iteration #  7     ecut=    30.00 Ry     beta= 0.30
     Davidson diagonalization with overlap
     ethr =  2.36E-10,  avg # of iterations =  2.0

     total cpu time spent up to now is       10.2 secs

     total energy              =     -45.59969586 Ry
     estimated scf accuracy    <       0.00000005 Ry

     iteration #  8     ecut=    30.00 Ry     beta= 0.30
     Davidson diagonalization with overlap
     ethr =  2.36E-10,  avg # of iterations =  2.0

     total cpu time spent up to now is       10.2 secs

     total energy              =     -45.59969586 Ry
     estimated scf accuracy    <          1.0E-10 Ry

     iteration #  9     ecut=    30.00 Ry     beta= 0.30
     Davidson diagonalization with overlap
     ethr =  6.34E-13,  avg # of iterations =  3.2

     total cpu time spent up to now is       10.3 secs

     total energy              =     -45.59969586 Ry
     estimated scf accuracy    <          2.2E-09 Ry

     iteration # 10     ecut=    30.00 Ry     beta= 0.30
     Davidson diagonalization with overlap
     ethr =  6.34E-13,  avg # of iterations =  3.0

     total cpu time spent up to now is       10.3 secs

     End of self-consistent calculation

          k = 0.1254 0.2171 0.0948 (   626 PWs)   bands (ev):

   -11.1507 -10.9002   0.3366   1.1701   1.2109   1.8610   2.2385   2.2672
    14.0627  15.4742  15.8155  16.6011

     occupation numbers 
     1.0000   1.0000   1.0000   1.0000   1.0000   1.0000   1.0000   1.0000
     0.0000   0.0000   0.0000   0.0000

          k = 0.1254 0.5066 0.0948 (   635 PWs)   bands (ev):

    -7.5958  -7.4058  -4.6810  -4.5363  -0.0743   0.0003   4.3245   5.3193
     9.3504  10.0151  16.2724  16.6491

     occupation numbers 
     1.0000   1.0000   1.0000   1.0000   1.0000   1.0000   1.0000   1.0000
     0.0000   0.0000   0.0000   0.0000

          k = 0.1254-0.3619 0.0948 (   638 PWs)   bands (ev):

    -9.6914  -9.4636  -1.6506  -1.5496   0.7001   0.7627   2.0594   3.4555
    12.3454  12.9124  15.7360  16.6421

     occupation numbers 
     1.0000   1.0000   1.0000   1.0000   1.0000   1.0000   1.0000   1.0000
     0.0000   0.0000   0.0000   0.0000

          k = 0.1254-0.0724 0.0948 (   616 PWs)   bands (ev):

   -11.8917 -11.6296  -0.5545   1.0202   2.9675   3.0122   3.6452   3.6780
    13.2016  15.7852  15.9167  17.2502

     occupation numbers 
     1.0000   1.0000   1.0000   1.0000   1.0000   1.0000   1.0000   1.0000
     0.0000   0.0000   0.0000   0.0000

          k = 0.3761 0.6514 0.0948 (   638 PWs)   bands (ev):

    -5.9594  -5.8661  -5.0632  -5.0225  -2.4029  -2.3089   6.0307   6.5900
     8.3594   8.4968  18.1763  18.3244

     occupation numbers 
     1.0000   1.0000   1.0000   1.0000   1.0000   1.0000   1.0017   0.9983
     0.0000   0.0000   0.0000   0.0000

          k = 0.3761-0.2171 0.0948 (   632 PWs)   bands (ev):

    -8.9747  -8.7583  -3.3664  -3.2305   1.3119   1.3622   2.8524   4.1365
    10.8209  11.6436  14.9182  15.2195

     occupation numbers 
     1.0000   1.0000   1.0000   1.0000   1.0000   1.0000   1.0000   1.0000
     0.0000   0.0000   0.0000   0.0000

     the Fermi energy is     6.8394 ev

!    total energy              =     -45.59969586 Ry
     estimated scf accuracy    <          9.4E-13 Ry
     smearing contrib. (-TS)   =       0.00042678 Ry
     internal energy E=F+TS    =     -45.60012264 Ry

     The total energy is F=E-TS. E is the sum of the following terms:
     one-electron contribution =      -8.82631423 Ry
     hartree contribution      =      12.54970805 Ry
     xc contribution           =     -14.07129149 Ry
     ewald contribution        =     -35.22573260 Ry
     DFT-D3 Dispersion         =      -0.02649237 Ry

     convergence has been achieved in  10 iterations

     Forces acting on atoms (cartesian axes, Ry/au):

     atom    1 type  1   force =     0.00000000    0.00000000    0.00000000
     atom    2 type  1   force =     0.00000000    0.00000000   -0.00000000
     atom    3 type  1   force =     0.00000000    0.00000000    0.00000000
     atom    4 type  1   force =    -0.00000000   -0.00000000    0.00000000
     The non-local contrib.  to forces
     atom    1 type  1   force =    -0.00000000    0.00000000   -0.00000000
     atom    2 type  1   force =     0.00000000   -0.00000000    0.00000000
     atom    3 type  1   force =    -0.00000000   -0.00000000    0.00000000
     atom    4 type  1   force =     0.00000000    0.00000000   -0.00000000
     The ionic contribution  to forces
     atom    1 type  1   force =     0.00000857   -0.00000495   -0.00000000
     atom    2 type  1   force =    -0.00000860    0.00000497   -0.00000000
     atom    3 type  1   force =    -0.00000857    0.00000495   -0.00000000
     atom    4 type  1   force =     0.00000860   -0.00000497   -0.00000000
     The local contribution  to forces
     atom    1 type  1   force =    -0.00000000    0.00000000    0.00000000
     atom    2 type  1   force =    -0.00000799    0.00000461    0.00000000
     atom    3 type  1   force =     0.00000000   -0.00000000    0.00000000
     atom    4 type  1   force =     0.00000799   -0.00000461    0.00000000
     The core correction contribution to forces
     atom    1 type  1   force =     0.00000000    0.00000000    0.00000000
     atom    2 type  1   force =     0.00000000    0.00000000    0.00000000
     atom    3 type  1   force =     0.00000000    0.00000000    0.00000000
     atom    4 type  1   force =     0.00000000    0.00000000    0.00000000
     The Hubbard contrib.    to forces
     atom    1 type  1   force =     0.00000000    0.00000000    0.00000000
     atom    2 type  1   force =     0.00000000    0.00000000    0.00000000
     atom    3 type  1   force =     0.00000000    0.00000000    0.00000000
     atom    4 type  1   force =     0.00000000    0.00000000    0.00000000
     The SCF correction term to forces
     atom    1 type  1   force =     0.00000000   -0.00000000    0.00000000
     atom    2 type  1   force =     0.00000000   -0.00000000    0.00000000
     atom    3 type  1   force =    -0.00000000    0.00000000   -0.00000000
     atom    4 type  1   force =    -0.00000000    0.00000000   -0.00000000

     DFT-D3 dispersion contribution to forces:
     atom    1 type  1   force =    -0.00000000    0.00000000   -0.00000000
     atom    2 type  1   force =     0.00000000   -0.00000000   -0.00000000
     atom    3 type  1   force =     0.00000000   -0.00000000    0.00000000
     atom    4 type  1   force =    -0.00000000    0.00000000    0.00000000

     Total force =     0.000000     Total SCF correction =     0.000000

     DFT-D3 dispersion Force =     0.000000


     Computing stress (Cartesian axis) and pressure

          total   stress  (Ry/bohr**3)                   (kbar)     P=       18.56
   0.00011119  -0.00000000   0.00000000           16.36       -0.00        0.00
  -0.00000000   0.00011119   0.00000000           -0.00       16.36        0.00
   0.00000000  -0.00000000   0.00015619            0.00       -0.00       22.98

     kinetic stress (kbar)  10957.99     -0.00      0.00
                               -0.00  10957.99      0.00
                               -0.00     -0.00  12700.76

     local   stress (kbar) -17517.11      0.01      0.00
                                0.01 -17517.10      0.00
                                0.00      0.00  24821.86

     nonloc. stress (kbar)   -470.17      0.00     -0.00
                                0.00   -470.17     -0.00
                               -0.00     -0.00   -469.81

     hartree stress (kbar)   6982.44     -0.00     -0.00
                               -0.00   6982.44     -0.00
                               -0.00     -0.00  -5931.97

     exc-cor stress (kbar)  -2769.30      0.00      0.00
                                0.00  -2769.30     -0.00
                                0.00     -0.00  -2864.30

     corecor stress (kbar)      0.00      0.00      0.00
                                0.00      0.00      0.00
                                0.00      0.00      0.00

     ewald   stress (kbar)   2832.89     -0.03     -0.00
                               -0.03   2832.86      0.00
                               -0.00      0.00 -28213.29

     hubbard stress (kbar)      0.00      0.00      0.00
                                0.00      0.00      0.00
                                0.00      0.00      0.00

     DFT-D   stress (kbar)     -0.37      0.00     -0.00
                                0.00     -0.37      0.00
                               -0.00      0.00    -20.28

     XDM     stress (kbar)      0.00      0.00      0.00
                                0.00      0.00      0.00
                                0.00      0.00      0.00

     dft-nl  stress (kbar)      0.00      0.00      0.00
                                0.00      0.00      0.00
                                0.00      0.00      0.00

     TS-vdW  stress (kbar)      0.00      0.00      0.00
                                0.00      0.00      0.00
                                0.00      0.00      0.00


     Energy error            =      4.2E-04
     Gradient error          =      3.3E-22
     Cell gradient error     =      1.6E-04


     number of scf cycles    =   3
     number of bfgs steps    =   2

     enthalpy old            =     -45.5992797672 Ry
     enthalpy new            =     -45.5996958644 Ry

     CASE: enthalpy_new < enthalpy_old

     new trust radius        =       0.0403624394 bohr
     new conv_thr            =            1.0E-11 Ry

     new unit-cell volume =    233.12442 a.u.^3 (    34.54547 Ang^3 )
     density =      2.30939 g/cm^3

CELL_PARAMETERS (alat=  4.66006462)
   0.997659609  -0.000000000  -0.000000000
  -0.498829804   0.863998565  -0.000000000
   0.000000000   0.000000000   2.672492744

ATOMIC_POSITIONS (crystal)
C             0.0000000000        1.0000000000        0.7500000000
C             0.6666670000        0.3333330000        0.7500000000
C             0.0000000000        1.0000000000        0.2500000000
C             0.3333330000        0.6666670000        0.2500000000



     Writing output data file ./tmp/graphite.save/
     NEW-OLD atomic charge density approx. for the potential
     extrapolated charge   16.22677, renormalised to   16.00000

     total cpu time spent up to now is       13.4 secs

     Self-consistent Calculation

     iteration #  1     ecut=    30.00 Ry     beta= 0.30
     Davidson diagonalization with overlap
     ethr =  1.00E-06,  avg # of iterations =  7.8

     total cpu time spent up to now is       14.4 secs

     total energy              =     -45.59834029 Ry
     estimated scf accuracy    <       0.00078522 Ry

     iteration #  2     ecut=    30.00 Ry     beta= 0.30
     Davidson diagonalization with overlap
     ethr =  4.91E-06,  avg # of iterations =  4.0

     total cpu time spent up to now is       14.5 secs

     total energy              =     -45.60019418 Ry
     estimated scf accuracy    <       0.00032443 Ry

     iteration #  3     ecut=    30.00 Ry     beta= 0.30
     Davidson diagonalization with overlap
     ethr =  2.03E-06,  avg # of iterations =  3.0

     total cpu time spent up to now is       14.5 secs

     total energy              =     -45.60007474 Ry
     estimated scf accuracy    <       0.00018754 Ry

     iteration #  4     ecut=    30.00 Ry     beta= 0.30
     Davidson diagonalization with overlap
     ethr =  1.17E-06,  avg # of iterations =  2.0

     total cpu time spent up to now is       14.5 secs

     total energy              =     -45.60011616 Ry
     estimated scf accuracy    <       0.00001837 Ry

     iteration #  5     ecut=    30.00 Ry     beta= 0.30
     Davidson diagonalization with overlap
     ethr =  1.15E-07,  avg # of iterations =  1.0

     total cpu time spent up to now is       14.6 secs

     total energy              =     -45.60011364 Ry
     estimated scf accuracy    <       0.00000516 Ry

     iteration #  6     ecut=    30.00 Ry     beta= 0.30
     Davidson diagonalization with overlap
     ethr =  3.22E-08,  avg # of iterations =  2.0

     total cpu time spent up to now is       14.6 secs

     total energy              =     -45.60011443 Ry
     estimated scf accuracy    <          3.1E-09 Ry

     iteration #  7     ecut=    30.00 Ry     beta= 0.30
     Davidson diagonalization with overlap
     ethr =  1.93E-11,  avg # of iterations =  3.0

     total cpu time spent up to now is       14.6 secs

     total energy              =     -45.60011440 Ry
     estimated scf accuracy    <       0.00000006 Ry

     iteration #  8     ecut=    30.00 Ry     beta= 0.30
     Davidson diagonalization with overlap
     ethr =  1.93E-11,  avg # of iterations =  3.0

     total cpu time spent up to now is       14.7 secs

     total energy              =     -45.60011441 Ry
     estimated scf accuracy    <          3.4E-09 Ry

     iteration #  9     ecut=    30.00 Ry     beta= 0.30
     Davidson diagonalization with overlap
     ethr =  1.93E-11,  avg # of iterations =  2.0

     total cpu time spent up to now is       14.7 secs

     total energy              =     -45.60011441 Ry
     estimated scf accuracy    <          7.1E-11 Ry

     iteration # 10     ecut=    30.00 Ry     beta= 0.30
     Davidson diagonalization with overlap
     ethr =  4.44E-13,  avg # of iterations =  1.8

     total cpu time spent up to now is       14.7 secs

     total energy              =     -45.60011441 Ry
     estimated scf accuracy    <          1.6E-11 Ry

     iteration # 11     ecut=    30.00 Ry     beta= 0.30
     Davidson diagonalization with overlap
     ethr =  1.00E-13,  avg # of iterations =  2.0

     total cpu time spent up to now is       14.8 secs

     End of self-consistent calculation

          k = 0.1253 0.2170 0.0935 (   626 PWs)   bands (ev):

   -11.2913 -11.0645   0.2249   1.0084   1.0446   1.6541   2.0772   2.1027
    13.7587  15.3169  15.6306  16.4229

     occupation numbers 
     1.0000   1.0000   1.0000   1.0000   1.0000   1.0000   1.0000   1.0000
     0.0000   0.0000   0.0000   0.0000

          k = 0.1253 0.5064 0.0935 (   635 PWs)   bands (ev):

    -7.7431  -7.5718  -4.8315  -4.7015  -0.2304  -0.1640   4.1987   5.1290
     9.2020   9.8256  16.1079  16.4536

     occupation numbers 
     1.0000   1.0000   1.0000   1.0000   1.0000   1.0000   1.0000   1.0000
     0.0000   0.0000   0.0000   0.0000

          k = 0.1253-0.3617 0.0935 (   638 PWs)   bands (ev):

    -9.8345  -9.6286  -1.8067  -1.7164   0.5426   0.5983   1.9435   3.2511
    12.1974  12.7238  15.4517  16.4725

     occupation numbers 
     1.0000   1.0000   1.0000   1.0000   1.0000   1.0000   1.0000   1.0000
     0.0000   0.0000   0.0000   0.0000

          k = 0.1253-0.0723 0.0935 (   616 PWs)   bands (ev):

   -12.0311 -11.7937  -0.6643   0.8126   2.8048   2.8444   3.4820   3.5110
    12.8901  15.6125  15.7347  17.2258

     occupation numbers 
     1.0000   1.0000   1.0000   1.0000   1.0000   1.0000   1.0000   1.0000
     0.0000   0.0000   0.0000   0.0000

          k = 0.3759 0.6510 0.0935 (   638 PWs)   bands (ev):

    -6.1133  -6.0294  -5.2196  -5.1830  -2.5545  -2.4704   5.8973   6.4191
     8.1956   8.3160  18.0071  18.1419

     occupation numbers 
     1.0000   1.0000   1.0000   1.0000   1.0000   1.0000   1.0031   0.9969
     0.0000   0.0000   0.0000   0.0000

          k = 0.3759-0.2170 0.0935 (   632 PWs)   bands (ev):

    -9.1191  -8.9236  -3.5187  -3.3967   1.1532   1.1976   2.7336   3.9355
    10.6796  11.4475  14.7528  15.0248

     occupation numbers 
     1.0000   1.0000   1.0000   1.0000   1.0000   1.0000   1.0000   1.0000
     0.0000   0.0000   0.0000   0.0000

     the Fermi energy is     6.6676 ev

!    total energy              =     -45.60011441 Ry
     estimated scf accuracy    <          3.1E-13 Ry
     smearing contrib. (-TS)   =       0.00044032 Ry
     internal energy E=F+TS    =     -45.60055474 Ry

     The total energy is F=E-TS. E is the sum of the following terms:
     one-electron contribution =      -9.80845697 Ry
     hartree contribution      =      12.94282791 Ry
     xc contribution           =     -14.06462655 Ry
     ewald contribution        =     -34.64423216 Ry
     DFT-D3 Dispersion         =      -0.02606697 Ry

     convergence has been achieved in  11 iterations

     Forces acting on atoms (cartesian axes, Ry/au):

     atom    1 type  1   force =     0.00000000    0.00000000   -0.00000000
     atom    2 type  1   force =    -0.00000000   -0.00000000    0.00000000
     atom    3 type  1   force =    -0.00000000   -0.00000000    0.00000000
     atom    4 type  1   force =    -0.00000000   -0.00000000    0.00000000
     The non-local contrib.  to forces
     atom    1 type  1   force =     0.00000000    0.00000000   -0.00000000
     atom    2 type  1   force =     0.00000000   -0.00000000    0.00000000
     atom    3 type  1   force =     0.00000000    0.00000000   -0.00000000
     atom    4 type  1   force =     0.00000000    0.00000000   -0.00000000
     The ionic contribution  to forces
     atom    1 type  1   force =     0.00000856   -0.00000494   -0.00000000
     atom    2 type  1   force =    -0.00000859    0.00000496   -0.00000000
     atom    3 type  1   force =    -0.00000856    0.00000494    0.00000000
     atom    4 type  1   force =     0.00000859   -0.00000496    0.00000000
     The local contribution  to forces
     atom    1 type  1   force =    -0.00000000    0.00000000   -0.00000000
     atom    2 type  1   force =    -0.00000800    0.00000462   -0.00000000
     atom    3 type  1   force =     0.00000000   -0.00000000    0.00000000
     atom    4 type  1   force =     0.00000800   -0.00000462    0.00000000
     The core correction contribution to forces
     atom    1 type  1   force =     0.00000000    0.00000000    0.00000000
     atom    2 type  1   force =     0.00000000    0.00000000    0.00000000
     atom    3 type  1   force =     0.00000000    0.00000000    0.00000000
     atom    4 type  1   force =     0.00000000    0.00000000    0.00000000
     The Hubbard contrib.    to forces
     atom    1 type  1   force =     0.00000000    0.00000000    0.00000000
     atom    2 type  1   force =     0.00000000    0.00000000    0.00000000
     atom    3 type  1   force =     0.00000000    0.00000000    0.00000000
     atom    4 type  1   force =     0.00000000    0.00000000    0.00000000
     The SCF correction term to forces
     atom    1 type  1   force =     0.00000000   -0.00000000   -0.00000000
     atom    2 type  1   force =     0.00000000   -0.00000000   -0.00000000
     atom    3 type  1   force =    -0.00000000    0.00000000   -0.00000000
     atom    4 type  1   force =    -0.00000000    0.00000000   -0.00000000

     DFT-D3 dispersion contribution to forces:
     atom    1 type  1   force =    -0.00000000    0.00000000   -0.00000000
     atom    2 type  1   force =     0.00000000   -0.00000000   -0.00000000
     atom    3 type  1   force =     0.00000000   -0.00000000    0.00000000
     atom    4 type  1   force =    -0.00000000    0.00000000    0.00000000

     Total force =     0.000000     Total SCF correction =     0.000000

     DFT-D3 dispersion Force =     0.000000


     Computing stress (Cartesian axis) and pressure

          total   stress  (Ry/bohr**3)                   (kbar)     P=       11.39
   0.00006429  -0.00000000   0.00000000            9.46       -0.00        0.00
  -0.00000000   0.00006429  -0.00000000           -0.00        9.46       -0.00
   0.00000000   0.00000000   0.00010376            0.00        0.00       15.26

     kinetic stress (kbar)  10795.58     -0.00      0.00
                               -0.00  10795.58      0.00
                               -0.00     -0.00  12512.51

     local   stress (kbar) -17869.92      0.01      0.00
                                0.01 -17869.91      0.00
                                0.00      0.00  25054.28

     nonloc. stress (kbar)   -462.60      0.00     -0.00
                                0.00   -462.60     -0.00
                                0.00      0.00   -462.61

     hartree stress (kbar)   7130.06      0.00      0.00
                                0.00   7130.06      0.00
                                0.00      0.00  -6092.99

     exc-cor stress (kbar)  -2728.51      0.00     -0.00
                                0.00  -2728.51      0.00
                               -0.00      0.00  -2823.21

     corecor stress (kbar)      0.00      0.00      0.00
                                0.00      0.00      0.00
                                0.00      0.00      0.00

     ewald   stress (kbar)   3145.56     -0.03      0.00
                               -0.03   3145.54      0.00
                                0.00      0.00 -28152.14

     hubbard stress (kbar)      0.00      0.00      0.00
                                0.00      0.00      0.00
                                0.00      0.00      0.00

     DFT-D   stress (kbar)     -0.71      0.00      0.00
                                0.00     -0.71      0.00
                                0.00      0.00    -20.57

     XDM     stress (kbar)      0.00      0.00      0.00
                                0.00      0.00      0.00
                                0.00      0.00      0.00

     dft-nl  stress (kbar)      0.00      0.00      0.00
                                0.00      0.00      0.00
                                0.00      0.00      0.00

     TS-vdW  stress (kbar)      0.00      0.00      0.00
                                0.00      0.00      0.00
                                0.00      0.00      0.00


     Energy error            =      4.2E-04
     Gradient error          =      2.5E-22
     Cell gradient error     =      1.0E-04


     number of scf cycles    =   4
     number of bfgs steps    =   3

     enthalpy old            =     -45.5996958644 Ry
     enthalpy new            =     -45.6001144145 Ry

     CASE: enthalpy_new < enthalpy_old

     new trust radius        =       0.0601762336 bohr
     new conv_thr            =            1.0E-11 Ry

     new unit-cell volume =    237.99688 a.u.^3 (    35.26750 Ang^3 )
     density =      2.26211 g/cm^3

CELL_PARAMETERS (alat=  4.66006462)
   0.998243804  -0.000000000  -0.000000000
  -0.499121902   0.864504493  -0.000000000
   0.000000000   0.000000000   2.725157208

ATOMIC_POSITIONS (crystal)
C             0.0000000000        1.0000000000        0.7500000000
C             0.6666670000        0.3333330000        0.7500000000
C             0.0000000000        1.0000000000        0.2500000000
C             0.3333330000        0.6666670000        0.2500000000



     Writing output data file ./tmp/graphite.save/
     NEW-OLD atomic charge density approx. for the potential
     extrapolated charge   16.32756, renormalised to   16.00000

     total cpu time spent up to now is       17.7 secs

     Self-consistent Calculation

     iteration #  1     ecut=    30.00 Ry     beta= 0.30
     Davidson diagonalization with overlap
     ethr =  1.00E-06,  avg # of iterations =  7.3

     total cpu time spent up to now is       18.7 secs

     total energy              =     -45.59652797 Ry
     estimated scf accuracy    <       0.00171295 Ry

     iteration #  2     ecut=    30.00 Ry     beta= 0.30
     Davidson diagonalization with overlap
     ethr =  1.07E-05,  avg # of iterations =  4.2

     total cpu time spent up to now is       18.8 secs

     total energy              =     -45.60062318 Ry
     estimated scf accuracy    <       0.00073823 Ry

     iteration #  3     ecut=    30.00 Ry     beta= 0.30
     Davidson diagonalization with overlap
     ethr =  4.61E-06,  avg # of iterations =  1.7

     total cpu time spent up to now is       18.8 secs

     total energy              =     -45.60034966 Ry
     estimated scf accuracy    <       0.00042622 Ry

     iteration #  4     ecut=    30.00 Ry     beta= 0.30
     Davidson diagonalization with overlap
     ethr =  2.66E-06,  avg # of iterations =  2.0

     total cpu time spent up to now is       18.9 secs

     total energy              =     -45.60044451 Ry
     estimated scf accuracy    <       0.00004299 Ry

     iteration #  5     ecut=    30.00 Ry     beta= 0.30
     Davidson diagonalization with overlap
     ethr =  2.69E-07,  avg # of iterations =  1.0

     total cpu time spent up to now is       18.9 secs

     total energy              =     -45.60043868 Ry
     estimated scf accuracy    <       0.00001158 Ry

     iteration #  6     ecut=    30.00 Ry     beta= 0.30
     Davidson diagonalization with overlap
     ethr =  7.24E-08,  avg # of iterations =  2.0

     total cpu time spent up to now is       18.9 secs

     total energy              =     -45.60044070 Ry
     estimated scf accuracy    <       0.00000006 Ry

     iteration #  7     ecut=    30.00 Ry     beta= 0.30
     Davidson diagonalization with overlap
     ethr =  4.06E-10,  avg # of iterations =  2.0

     total cpu time spent up to now is       19.0 secs

     total energy              =     -45.60044069 Ry
     estimated scf accuracy    <       0.00000010 Ry

     iteration #  8     ecut=    30.00 Ry     beta= 0.30
     Davidson diagonalization with overlap
     ethr =  4.06E-10,  avg # of iterations =  2.0

     total cpu time spent up to now is       19.0 secs

     total energy              =     -45.60044071 Ry
     estimated scf accuracy    <          3.8E-09 Ry

     iteration #  9     ecut=    30.00 Ry     beta= 0.30
     Davidson diagonalization with overlap
     ethr =  2.40E-11,  avg # of iterations =  2.0

     total cpu time spent up to now is       19.0 secs

     total energy              =     -45.60044071 Ry
     estimated scf accuracy    <          2.3E-09 Ry

     iteration # 10     ecut=    30.00 Ry     beta= 0.30
     Davidson diagonalization with overlap
     ethr =  1.44E-11,  avg # of iterations =  2.0

     total cpu time spent up to now is       19.1 secs

     total energy              =     -45.60044071 Ry
     estimated scf accuracy    <          1.5E-11 Ry

     iteration # 11     ecut=    30.00 Ry     beta= 0.30
     Davidson diagonalization with overlap
     ethr =  1.00E-13,  avg # of iterations =  2.2

     total cpu time spent up to now is       19.1 secs

     End of self-consistent calculation

          k = 0.1252 0.2169 0.0917 (   626 PWs)   bands (ev):

   -11.4968 -11.3016   0.0623   0.7771   0.8074   1.3588   1.8462   1.8676
    13.3302  15.0948  15.3711  16.1690

     occupation numbers 
     1.0000   1.0000   1.0000   1.0000   1.0000   1.0000   1.0000   1.0000
     0.0000   0.0000   0.0000   0.0000

          k = 0.1252 0.5061 0.0917 (   635 PWs)   bands (ev):

    -7.9567  -7.8101  -5.0491  -4.9384  -0.4550  -0.3992   4.0170   4.8575
     8.9915   9.5573  15.8771  16.1810

     occupation numbers 
     1.0000   1.0000   1.0000   1.0000   1.0000   1.0000   1.0000   1.0000
     0.0000   0.0000   0.0000   0.0000

          k = 0.1252-0.3615 0.0917 (   638 PWs)   bands (ev):

   -10.0430  -9.8661  -2.0310  -1.9546   0.3162   0.3629   1.7754   2.9598
    11.9874  12.4578  15.0495  16.2346

     occupation numbers 
     1.0000   1.0000   1.0000   1.0000   1.0000   1.0000   1.0000   1.0000
     0.0000   0.0000   0.0000   0.0000

          k = 0.1252-0.0723 0.0917 (   616 PWs)   bands (ev):

   -12.2351 -12.0305  -0.8246   0.5162   2.5725   2.6054   3.2490   3.2730
    12.4513  15.3675  15.4793  16.5991

     occupation numbers 
     1.0000   1.0000   1.0000   1.0000   1.0000   1.0000   1.0000   1.0000
     0.0000   0.0000   0.0000   0.0000

          k = 0.3757 0.6507 0.0917 (   638 PWs)   bands (ev):

    -6.3352  -6.2638  -5.4450  -5.4137  -2.7740  -2.7028   5.7047   6.1744
     7.9627   8.0611  17.7699  17.8839

     occupation numbers 
     1.0000   1.0000   1.0000   1.0000   1.0000   1.0000   1.0066   0.9934
     0.0000   0.0000   0.0000   0.0000

          k = 0.3757-0.2169 0.0917 (   632 PWs)   bands (ev):

    -9.3291  -9.1614  -3.7385  -3.6348   0.9253   0.9622   2.5616   3.6492
    10.4787  11.1704  14.5200  14.7528

     occupation numbers 
     1.0000   1.0000   1.0000   1.0000   1.0000   1.0000   1.0000   1.0000
     0.0000   0.0000   0.0000   0.0000

     the Fermi energy is     6.4203 ev

!    total energy              =     -45.60044071 Ry
     estimated scf accuracy    <          5.1E-13 Ry
     smearing contrib. (-TS)   =       0.00047265 Ry
     internal energy E=F+TS    =     -45.60091336 Ry

     The total energy is F=E-TS. E is the sum of the following terms:
     one-electron contribution =     -11.29142957 Ry
     hartree contribution      =      13.54470597 Ry
     xc contribution           =     -14.05681718 Ry
     ewald contribution        =     -33.77195045 Ry
     DFT-D3 Dispersion         =      -0.02542214 Ry

     convergence has been achieved in  11 iterations

     Forces acting on atoms (cartesian axes, Ry/au):

     atom    1 type  1   force =     0.00000000    0.00000000   -0.00000000
     atom    2 type  1   force =     0.00000000   -0.00000000   -0.00000000
     atom    3 type  1   force =     0.00000000    0.00000000   -0.00000000
     atom    4 type  1   force =     0.00000000    0.00000000   -0.00000000
     The non-local contrib.  to forces
     atom    1 type  1   force =     0.00000000   -0.00000000   -0.00000000
     atom    2 type  1   force =     0.00000000   -0.00000000    0.00000000
     atom    3 type  1   force =    -0.00000000   -0.00000000    0.00000000
     atom    4 type  1   force =    -0.00000000    0.00000000    0.00000000
     The ionic contribution  to forces
     atom    1 type  1   force =     0.00000855   -0.00000494   -0.00000000
     atom    2 type  1   force =    -0.00000858    0.00000495   -0.00000000
     atom    3 type  1   force =    -0.00000855    0.00000494    0.00000000
     atom    4 type  1   force =     0.00000858   -0.00000495    0.00000000
     The local contribution  to forces
     atom    1 type  1   force =    -0.00000000    0.00000000   -0.00000000
     atom    2 type  1   force =    -0.00000800    0.00000462   -0.00000000
     atom    3 type  1   force =     0.00000000   -0.00000000    0.00000000
     atom    4 type  1   force =     0.00000800   -0.00000462    0.00000000
     The core correction contribution to forces
     atom    1 type  1   force =     0.00000000    0.00000000    0.00000000
     atom    2 type  1   force =     0.00000000    0.00000000    0.00000000
     atom    3 type  1   force =     0.00000000    0.00000000    0.00000000
     atom    4 type  1   force =     0.00000000    0.00000000    0.00000000
     The Hubbard contrib.    to forces
     atom    1 type  1   force =     0.00000000    0.00000000    0.00000000
     atom    2 type  1   force =     0.00000000    0.00000000    0.00000000
     atom    3 type  1   force =     0.00000000    0.00000000    0.00000000
     atom    4 type  1   force =     0.00000000    0.00000000    0.00000000
     The SCF correction term to forces
     atom    1 type  1   force =     0.00000000   -0.00000000   -0.00000000
     atom    2 type  1   force =     0.00000000   -0.00000000   -0.00000000
     atom    3 type  1   force =    -0.00000000    0.00000000    0.00000000
     atom    4 type  1   force =    -0.00000000    0.00000000    0.00000000

     DFT-D3 dispersion contribution to forces:
     atom    1 type  1   force =    -0.00000000    0.00000000   -0.00000000
     atom    2 type  1   force =     0.00000000   -0.00000000    0.00000000
     atom    3 type  1   force =     0.00000000   -0.00000000    0.00000000
     atom    4 type  1   force =    -0.00000000    0.00000000   -0.00000000

     Total force =     0.000000     Total SCF correction =     0.000000

     DFT-D3 dispersion Force =     0.000000


     Computing stress (Cartesian axis) and pressure

          total   stress  (Ry/bohr**3)                   (kbar)     P=        2.98
   0.00001337  -0.00000000   0.00000000            1.97       -0.00        0.00
  -0.00000000   0.00001337   0.00000000           -0.00        1.97        0.00
   0.00000000  -0.00000000   0.00003410            0.00       -0.00        5.02

     kinetic stress (kbar)  10566.91     -0.00      0.00
                               -0.00  10566.91      0.00
                               -0.00     -0.00  12246.89

     local   stress (kbar) -18399.80      0.01     -0.00
                                0.01 -18399.79     -0.00
                               -0.00     -0.00  25417.56

     nonloc. stress (kbar)   -452.34      0.00     -0.00
                                0.00   -452.34     -0.00
                               -0.00     -0.00   -453.17

     hartree stress (kbar)   7354.37      0.00     -0.00
                                0.00   7354.37     -0.00
                               -0.00     -0.00  -6336.81

     exc-cor stress (kbar)  -2670.83      0.00     -0.00
                                0.00  -2670.83     -0.00
                               -0.00     -0.00  -2765.02

     corecor stress (kbar)      0.00      0.00      0.00
                                0.00      0.00      0.00
                                0.00      0.00      0.00

     ewald   stress (kbar)   3604.72     -0.02      0.00
                               -0.02   3604.69     -0.00
                                0.00     -0.00 -28083.75

[...]
B_2u   1.00 -1.00  1.00 -1.00 -1.00  1.00 -1.00  1.00 -1.00  1.00  1.00 -1.00
E_1u   2.00  1.00 -1.00 -2.00  0.00  0.00 -2.00 -1.00  1.00  2.00  0.00  0.00
E_2u   2.00 -1.00 -1.00  2.00  0.00  0.00 -2.00  1.00  1.00 -2.00  0.00  0.00

     the symmetry operations in each class and the name of the first element:

     E        1
          identity                                               
     2C6      5    6
           60 deg rotation - cryst. axis [0,0,1]                 
     2C3      7    8
          120 deg rotation - cryst. axis [0,0,1]                 
     C2       2
          180 deg rotation - cart. axis [0,0,1]                  
     3C2'     4   12   11
          180 deg rotation - cart. axis [1,0,0]                  
     3C2''    3    9   10
          180 deg rotation - cart. axis [0,1,0]                  
     i       13
          inversion                                              
     2S3     17   18
          inv.  60 deg rotation - cryst. axis [0,0,1]            
     2S6     19   20
          inv. 120 deg rotation - cryst. axis [0,0,1]            
     s_h     14
          inv. 180 deg rotation - cart. axis [0,0,1]             
     3s_d    16   24   23
          inv. 180 deg rotation - cart. axis [1,0,0]             
     3s_v    15   21   22
          inv. 180 deg rotation - cart. axis [0,1,0]             

   Cartesian axes

     site n.     atom                  positions (alat units)
         1           C   tau(   1) = (  -0.4992017   0.8646428   2.0649948  )
         2           C   tau(   2) = (   0.4992022   0.2882140   2.0649948  )
         3           C   tau(   3) = (  -0.4992017   0.8646428   0.6883316  )
         4           C   tau(   4) = (  -0.0000005   0.5764288   0.6883316  )

   Crystallographic axes

     site n.     atom                  positions (cryst. coord.)
         1           C   tau(   1) = (  0.0000000  1.0000000  0.7500000  )
         2           C   tau(   2) = (  0.6666670  0.3333330  0.7500000  )
         3           C   tau(   3) = (  0.0000000  1.0000000  0.2500000  )
         4           C   tau(   4) = (  0.3333330  0.6666670  0.2500000  )

     number of k points=     6  Marzari-Vanderbilt smearing, width (Ry)=  0.0200
                       cart. coord. in units 2pi/alat
        k(    1) = (   0.1251999   0.2168526   0.0907993), wk =   0.2500000
        k(    2) = (   0.1251999   0.5059893   0.0907993), wk =   0.5000000
        k(    3) = (   0.1251999  -0.3614209   0.0907993), wk =   0.5000000
        k(    4) = (   0.1251999  -0.0722842   0.0907993), wk =   0.2500000
        k(    5) = (   0.3755997   0.6505577   0.0907993), wk =   0.2500000
        k(    6) = (   0.3755997  -0.2168526   0.0907993), wk =   0.2500000

                       cryst. coord.
        k(    1) = (   0.1250000   0.1250000   0.2500000), wk =   0.2500000
        k(    2) = (   0.1250000   0.3750000   0.2500000), wk =   0.5000000
        k(    3) = (   0.1250000  -0.3750000   0.2500000), wk =   0.5000000
        k(    4) = (   0.1250000  -0.1250000   0.2500000), wk =   0.2500000
        k(    5) = (   0.3750000   0.3750000   0.2500000), wk =   0.2500000
        k(    6) = (   0.3750000  -0.3750000   0.2500000), wk =   0.2500000

     Dense  grid:    15171 G-vectors     FFT dimensions: (  24,  24,  64)

     Smooth grid:     5319 G-vectors     FFT dimensions: (  18,  18,  48)

     Dynamical RAM for                 wfc:       0.02 MB

     Dynamical RAM for     wfc (w. buffer):       0.11 MB

     Dynamical RAM for           str. fact:       0.03 MB

     Dynamical RAM for           local pot:       0.01 MB

     Dynamical RAM for          nlocal pot:       0.04 MB

     Dynamical RAM for                qrad:       0.71 MB

     Dynamical RAM for          rho,v,vnew:       0.19 MB

     Dynamical RAM for               rhoin:       0.06 MB

     Dynamical RAM for            rho*nmix:       0.46 MB

     Dynamical RAM for           G-vectors:       0.11 MB

     Dynamical RAM for          h,s,v(r/c):       0.03 MB

     Dynamical RAM for          <psi|beta>:       0.01 MB

     Dynamical RAM for                 psi:       0.03 MB

     Dynamical RAM for                hpsi:       0.03 MB

     Dynamical RAM for                spsi:       0.03 MB

     Dynamical RAM for      wfcinit/wfcrot:       0.05 MB

     Dynamical RAM for           addusdens:       1.36 MB

     Dynamical RAM for          addusforce:       1.55 MB

     Dynamical RAM for         addusstress:       1.45 MB

     Estimated static dynamical RAM per process >       1.97 MB

     Estimated max dynamical RAM per process >       3.52 MB

     Estimated total dynamical RAM >      28.15 MB

     Initial potential from superposition of free atoms

     starting charge   15.99979, renormalised to   16.00000
     Starting wfcs are   16 randomized atomic wfcs

     total cpu time spent up to now is       30.5 secs

     Self-consistent Calculation

     iteration #  1     ecut=    30.00 Ry     beta= 0.30
     Davidson diagonalization with overlap
     c_bands:  1 eigenvalues not converged
     ethr =  1.00E-06,  avg # of iterations = 15.5

     total cpu time spent up to now is       31.5 secs

     total energy              =     -45.64335802 Ry
     estimated scf accuracy    <       0.39279778 Ry

     iteration #  2     ecut=    30.00 Ry     beta= 0.30
     Davidson diagonalization with overlap
     ethr =  2.45E-03,  avg # of iterations =  1.0

     total cpu time spent up to now is       31.5 secs

     total energy              =     -45.58100180 Ry
     estimated scf accuracy    <       0.13245322 Ry

     iteration #  3     ecut=    30.00 Ry     beta= 0.30
     Davidson diagonalization with overlap
     ethr =  8.28E-04,  avg # of iterations =  2.5

     total cpu time spent up to now is       31.5 secs

     total energy              =     -45.60050804 Ry
     estimated scf accuracy    <       0.00195047 Ry

     iteration #  4     ecut=    30.00 Ry     beta= 0.30
     Davidson diagonalization with overlap
     ethr =  1.22E-05,  avg # of iterations =  4.2

     total cpu time spent up to now is       31.6 secs

     total energy              =     -45.60070489 Ry
     estimated scf accuracy    <       0.00022757 Ry

     iteration #  5     ecut=    30.00 Ry     beta= 0.30
     Davidson diagonalization with overlap
     ethr =  1.42E-06,  avg # of iterations =  5.2

     total cpu time spent up to now is       31.6 secs

     total energy              =     -45.60073432 Ry
     estimated scf accuracy    <       0.00000211 Ry

     iteration #  6     ecut=    30.00 Ry     beta= 0.30
     Davidson diagonalization with overlap
     ethr =  1.32E-08,  avg # of iterations =  3.0

     total cpu time spent up to now is       31.7 secs

     total energy              =     -45.60073552 Ry
     estimated scf accuracy    <       0.00000171 Ry

     iteration #  7     ecut=    30.00 Ry     beta= 0.30
     Davidson diagonalization with overlap
     ethr =  1.07E-08,  avg # of iterations =  2.0

     total cpu time spent up to now is       31.7 secs

     total energy              =     -45.60073596 Ry
     estimated scf accuracy    <       0.00000008 Ry

     iteration #  8     ecut=    30.00 Ry     beta= 0.30
     Davidson diagonalization with overlap
     ethr =  5.25E-10,  avg # of iterations =  2.0

     total cpu time spent up to now is       31.7 secs

     total energy              =     -45.60073607 Ry
     estimated scf accuracy    <          9.8E-10 Ry

     iteration #  9     ecut=    30.00 Ry     beta= 0.30
     Davidson diagonalization with overlap
     ethr =  6.11E-12,  avg # of iterations =  2.2

     total cpu time spent up to now is       31.8 secs

     total energy              =     -45.60073612 Ry
     estimated scf accuracy    <          7.7E-10 Ry

     iteration # 10     ecut=    30.00 Ry     beta= 0.30
     Davidson diagonalization with overlap
     ethr =  4.84E-12,  avg # of iterations =  2.0

     total cpu time spent up to now is       31.8 secs

     total energy              =     -45.60073615 Ry
     estimated scf accuracy    <          1.1E-11 Ry

     iteration # 11     ecut=    30.00 Ry     beta= 0.30
     Davidson diagonalization with overlap
     ethr =  1.00E-13,  avg # of iterations =  2.0

     total cpu time spent up to now is       31.8 secs

     End of self-consistent calculation

          k = 0.1252 0.2169 0.0908 (   660 PWs)   bands (ev):

   -11.6036 -11.4236  -0.0223   0.6603   0.6878   1.2082   1.7292   1.7485
    13.1160  14.9850  15.2430  16.0411

     occupation numbers 
     1.0000   1.0000   1.0000   1.0000   1.0000   1.0000   1.0000   1.0000
     0.0000   0.0000   0.0000   0.0000

          k = 0.1252 0.5060 0.0908 (   676 PWs)   bands (ev):

    -8.0666  -7.9318  -5.1608  -5.0592  -0.5696  -0.5188   3.9238   4.7197
     8.8857   9.4226  15.7646  16.0480

     occupation numbers 
     1.0000   1.0000   1.0000   1.0000   1.0000   1.0000   1.0000   1.0000
     0.0000   0.0000   0.0000   0.0000

          k = 0.1252-0.3614 0.0908 (   670 PWs)   bands (ev):

   -10.1509  -9.9880  -2.1451  -2.0752   0.2010   0.2435   1.6886   2.8116
    11.8828  12.3253  14.8483  16.1188

     occupation numbers 
     1.0000   1.0000   1.0000   1.0000   1.0000   1.0000   1.0000   1.0000
     0.0000   0.0000   0.0000   0.0000

          k = 0.1252-0.0723 0.0908 (   653 PWs)   bands (ev):

   -12.3413 -12.1525  -0.9085   0.3646   2.4553   2.4852   3.1316   3.1532
    12.2319  15.2452  15.3537  16.2767

     occupation numbers 
     1.0000   1.0000   1.0000   1.0000   1.0000   1.0000   1.0000   1.0000
     0.0000   0.0000   0.0000   0.0000

          k = 0.3756 0.6506 0.0908 (   668 PWs)   bands (ev):

    -6.4485  -6.3830  -5.5603  -5.5315  -2.8868  -2.8217   5.6064   6.0499
     7.8454   7.9335  17.6532  17.7559

     occupation numbers 
     1.0000   1.0000   1.0000   1.0000   1.0000   1.0000   1.0095   0.9905
     0.0000   0.0000   0.0000   0.0000

          k = 0.3756-0.2169 0.0908 (   668 PWs)   bands (ev):

    -9.4377  -9.2833  -3.8508  -3.7558   0.8095   0.8428   2.4727   3.5037
    10.3779  11.0319  14.4061  14.6199

     occupation numbers 
     1.0000   1.0000   1.0000   1.0000   1.0000   1.0000   1.0000   1.0000
     0.0000   0.0000   0.0000   0.0000

     the Fermi energy is     6.2939 ev

!    total energy              =     -45.60073617 Ry
     estimated scf accuracy    <          5.3E-12 Ry
     smearing contrib. (-TS)   =       0.00049700 Ry
     internal energy E=F+TS    =     -45.60123318 Ry

     The total energy is F=E-TS. E is the sum of the following terms:
     one-electron contribution =     -12.09266323 Ry
     hartree contribution      =      13.87489286 Ry
     xc contribution           =     -14.05406849 Ry
     ewald contribution        =     -33.30431770 Ry
     DFT-D3 Dispersion         =      -0.02507662 Ry

     convergence has been achieved in  11 iterations

     Forces acting on atoms (cartesian axes, Ry/au):

     atom    1 type  1   force =    -0.00000000    0.00000000    0.00000000
     atom    2 type  1   force =     0.00000000    0.00000000   -0.00000000
     atom    3 type  1   force =     0.00000000   -0.00000000   -0.00000000
     atom    4 type  1   force =    -0.00000000   -0.00000000    0.00000000
     The non-local contrib.  to forces
     atom    1 type  1   force =    -0.00000000   -0.00000000    0.00000000
     atom    2 type  1   force =     0.00000000    0.00000000   -0.00000000
     atom    3 type  1   force =    -0.00000000   -0.00000000    0.00000000
     atom    4 type  1   force =    -0.00000000    0.00000000   -0.00000000
     The ionic contribution  to forces
     atom    1 type  1   force =     0.00000855   -0.00000494   -0.00000000
     atom    2 type  1   force =    -0.00000857    0.00000495   -0.00000000
     atom    3 type  1   force =    -0.00000855    0.00000494    0.00000000
     atom    4 type  1   force =     0.00000857   -0.00000495    0.00000000
     The local contribution  to forces
     atom    1 type  1   force =    -0.00000000    0.00000000   -0.00000000
     atom    2 type  1   force =    -0.00000800    0.00000462   -0.00000000
     atom    3 type  1   force =     0.00000000   -0.00000000    0.00000000
     atom    4 type  1   force =     0.00000800   -0.00000462    0.00000000
     The core correction contribution to forces
     atom    1 type  1   force =     0.00000000    0.00000000    0.00000000
     atom    2 type  1   force =     0.00000000    0.00000000    0.00000000
     atom    3 type  1   force =     0.00000000    0.00000000    0.00000000
     atom    4 type  1   force =     0.00000000    0.00000000    0.00000000
     The Hubbard contrib.    to forces
     atom    1 type  1   force =     0.00000000    0.00000000    0.00000000
     atom    2 type  1   force =     0.00000000    0.00000000    0.00000000
     atom    3 type  1   force =     0.00000000    0.00000000    0.00000000
     atom    4 type  1   force =     0.00000000    0.00000000    0.00000000
     The SCF correction term to forces
     atom    1 type  1   force =     0.00000000   -0.00000000   -0.00000000
     atom    2 type  1   force =     0.00000000   -0.00000000   -0.00000000
     atom    3 type  1   force =    -0.00000000    0.00000000   -0.00000000
     atom    4 type  1   force =    -0.00000000    0.00000000   -0.00000000

     DFT-D3 dispersion contribution to forces:
     atom    1 type  1   force =    -0.00000000    0.00000000   -0.00000000
     atom    2 type  1   force =     0.00000000   -0.00000000    0.00000000
     atom    3 type  1   force =     0.00000000   -0.00000000    0.00000000
     atom    4 type  1   force =    -0.00000000    0.00000000   -0.00000000

     Total force =     0.000000     Total SCF correction =     0.000000

     DFT-D3 dispersion Force =     0.000000


     Computing stress (Cartesian axis) and pressure

          total   stress  (Ry/bohr**3)                   (kbar)     P=        2.24
   0.00000616  -0.00000000   0.00000000            0.91       -0.00        0.00
  -0.00000000   0.00000616   0.00000000           -0.00        0.91        0.00
   0.00000000   0.00000000   0.00003332            0.00        0.00        4.90

     kinetic stress (kbar)  10452.23     -0.00     -0.00
                               -0.00  10452.23     -0.00
                                0.00      0.00  12112.98

     local   stress (kbar) -18687.91      0.01     -0.00
                                0.01 -18687.90     -0.00
                               -0.00     -0.00  25629.14

     nonloc. stress (kbar)   -446.59      0.00     -0.00
                                0.00   -446.59     -0.00
                               -0.00     -0.00   -445.50

     hartree stress (kbar)   7478.11      0.00      0.00
                                0.00   7478.11      0.00
                                0.00      0.00  -6470.66

     exc-cor stress (kbar)  -2641.99      0.00      0.00
                                0.00  -2641.99     -0.00
                                0.00     -0.00  -2735.86

     corecor stress (kbar)      0.00      0.00      0.00
                                0.00      0.00      0.00
                                0.00      0.00      0.00

     ewald   stress (kbar)   3848.23     -0.02     -0.00
                               -0.02   3848.20      0.00
                               -0.00      0.00 -28064.59

     hubbard stress (kbar)      0.00      0.00      0.00
                                0.00      0.00      0.00
                                0.00      0.00      0.00

     DFT-D   stress (kbar)     -1.17      0.00     -0.00
                                0.00     -1.17      0.00
                               -0.00      0.00    -20.62

     XDM     stress (kbar)      0.00      0.00      0.00
                                0.00      0.00      0.00
                                0.00      0.00      0.00

     dft-nl  stress (kbar)      0.00      0.00      0.00
                                0.00      0.00      0.00
                                0.00      0.00      0.00

     TS-vdW  stress (kbar)      0.00      0.00      0.00
                                0.00      0.00      0.00
                                0.00      0.00      0.00



     Writing output data file ./tmp/graphite.save/
 
     init_run     :      0.10s CPU      0.10s WALL (       2 calls)
     electrons    :     10.25s CPU     10.70s WALL (       8 calls)
     update_pot   :      0.13s CPU      0.14s WALL (       6 calls)
     forces       :     11.64s CPU     11.79s WALL (       8 calls)
     stress       :     11.68s CPU     11.76s WALL (       8 calls)

     Called by init_run:
     wfcinit      :      0.03s CPU      0.03s WALL (       2 calls)
     wfcinit:atom :      0.00s CPU      0.00s WALL (      12 calls)
     wfcinit:wfcr :      0.02s CPU      0.02s WALL (      12 calls)
     potinit      :      0.02s CPU      0.02s WALL (       2 calls)
     hinit0       :      0.04s CPU      0.04s WALL (       2 calls)

     Called by electrons:
     c_bands      :      1.97s CPU      2.25s WALL (      78 calls)
     sum_band     :      0.42s CPU      0.49s WALL (      78 calls)
     v_of_rho     :      0.19s CPU      0.21s WALL (      85 calls)
     v_h          :      0.01s CPU      0.01s WALL (      85 calls)
     v_xc         :      0.18s CPU      0.20s WALL (      85 calls)
     newd         :      0.08s CPU      0.09s WALL (      85 calls)
     mix_rho      :      0.03s CPU      0.03s WALL (      78 calls)

     Called by c_bands:
     init_us_2    :      0.02s CPU      0.02s WALL (    1044 calls)
     cegterg      :      1.90s CPU      2.18s WALL (     468 calls)

     Called by sum_band:
     sum_band:wei :      0.00s CPU      0.00s WALL (      78 calls)
     sum_band:loo :      0.30s CPU      0.36s WALL (      78 calls)
     sum_band:buf :      0.00s CPU      0.00s WALL (     468 calls)
     sum_band:ini :      0.01s CPU      0.01s WALL (     468 calls)
     sum_band:cal :      0.02s CPU      0.02s WALL (     468 calls)
     sum_band:bec :      0.00s CPU      0.00s WALL (     468 calls)
     addusdens    :      0.06s CPU      0.07s WALL (      78 calls)
     addusd:skk   :      0.00s CPU      0.00s WALL (      78 calls)
     addusd:dgemm :      0.02s CPU      0.02s WALL (      78 calls)
     addusd:qvan2 :      0.03s CPU      0.04s WALL (      78 calls)

     Called by *egterg:
     cdiaghg      :      0.23s CPU      0.26s WALL (    1684 calls)
     cegterg:over :      0.06s CPU      0.06s WALL (    1258 calls)
     cegterg:upda :      0.01s CPU      0.01s WALL (    1258 calls)
     cegterg:last :      0.02s CPU      0.02s WALL (     982 calls)
     h_psi        :      1.53s CPU      1.74s WALL (    1738 calls)
     s_psi        :      0.02s CPU      0.02s WALL (    1738 calls)
     g_psi        :      0.01s CPU      0.01s WALL (    1258 calls)

     Called by h_psi:
     h_psi:calbec :      0.06s CPU      0.07s WALL (    1738 calls)
     vloc_psi     :      1.44s CPU      1.64s WALL (    1738 calls)
     add_vuspsi   :      0.02s CPU      0.02s WALL (    1738 calls)

     General routines
     calbec       :      0.20s CPU      0.27s WALL (    2446 calls)
     fft          :      0.35s CPU      0.49s WALL (    1160 calls)
     ffts         :      0.01s CPU      0.01s WALL (     163 calls)
     fftw         :      1.62s CPU      1.86s WALL (   36382 calls)
     interpolate  :      0.01s CPU      0.02s WALL (      85 calls)
 
     Parallel routines
     fft_scatt_xy :      0.11s CPU      0.12s WALL (   37705 calls)
     fft_scatt_yz :      1.13s CPU      1.40s WALL (   37705 calls)
 
     PWSCF        :     33.87s CPU     34.63s WALL

 
   This run was terminated on:  17:49:16  16Apr2021            

=------------------------------------------------------------------------------=
   JOB DONE.
=------------------------------------------------------------------------------=
