
     Program PWSCF v.6.7MaX starts on 16Apr2021 at 17:41:10 

     This program is part of the open-source Quantum ESPRESSO suite
     for quantum simulation of materials; please cite
         "P. Giannozzi et al., J. Phys.:Condens. Matter 21 395502 (2009);
         "P. Giannozzi et al., J. Phys.:Condens. Matter 29 465901 (2017);
          URL http://www.quantum-espresso.org", 
     in publications or presentations arising from this work. More details at
     http://www.quantum-espresso.org/quote

     Parallel version (MPI), running on     8 processors

     MPI processes distributed on     1 nodes
     R & G space division:  proc/nbgrp/npool/nimage =       8
     Waiting for input...
     Reading input from standard input

     Current dimensions of program PWSCF are:
     Max number of different atomic species (ntypx) = 10
     Max number of k-points (npk) =  40000
     Max angular momentum in pseudopotentials (lmaxx) =  3
     file C.pbe-rrkjus.UPF: wavefunction(s)  2S 2P renormalized

     IMPORTANT: XC functional enforced from input :
     Exchange-correlation= VDW-DF
                           (   1   4   4   0   1   0   0)
     Any further DFT definition will be discarded
     Please, verify this is what you really want


     Subspace diagonalization in iterative solution of the eigenvalue problem:
     a serial algorithm will be used

 
     Parallelization info
     --------------------
     sticks:   dense  smooth     PW     G-vecs:    dense   smooth      PW
     Min          45      22      7                 1787      630     127
     Max          46      24      8                 1796      634     134
     Sum         361     187     61                14339     5053    1045
 


     bravais-lattice index     =            4
     lattice parameter (alat)  =       4.6601  a.u.
     unit-cell volume          =     227.8448 (a.u.)^3
     number of atoms/cell      =            4
     number of atomic types    =            1
     number of electrons       =        16.00
     number of Kohn-Sham states=           12
     kinetic-energy cutoff     =      30.0000  Ry
     charge density cutoff     =     240.0000  Ry
     scf convergence threshold =      1.0E-09
     mixing beta               =       0.3000
     number of iterations used =            8  plain     mixing
     energy convergence thresh.=      1.0E-05
     force convergence thresh. =      1.0E-04
     press convergence thresh. =      5.0E-01
     Exchange-correlation= VDW-DF
                           (   1   4   4   0   1   0   0)
     nstep                     =           50


     celldm(1)=   4.660065  celldm(2)=   0.000000  celldm(3)=   2.599757
     celldm(4)=   0.000000  celldm(5)=   0.000000  celldm(6)=   0.000000

     crystal axes: (cart. coord. in units of alat)
               a(1) = (   1.000000   0.000000   0.000000 )  
               a(2) = (  -0.500000   0.866025   0.000000 )  
               a(3) = (   0.000000   0.000000   2.599757 )  

     reciprocal axes: (cart. coord. in units 2 pi/alat)
               b(1) = (  1.000000  0.577350  0.000000 )  
               b(2) = (  0.000000  1.154701  0.000000 )  
               b(3) = (  0.000000  0.000000  0.384651 )  


     PseudoPot. # 1 for C  read from file:
     ../../pseudo/C.pbe-rrkjus.UPF
     MD5 check sum: 00fb224312de0c5b6853bd333518df6f
     Pseudo is Ultrasoft, Zval =  4.0
     Generated by new atomic code, or converted to UPF format
     Using radial grid of  627 points,  4 beta functions with: 
                l(1) =   0
                l(2) =   0
                l(3) =   1
                l(4) =   1
     Q(r) pseudized with 0 coefficients 


     atomic species   valence    mass     pseudopotential
        C              4.00    12.01100     C ( 1.00)

     24 Sym. Ops., with inversion, found (12 have fractional translation)


                                    s                        frac. trans.

      isym =  1     identity                                     

 cryst.   s( 1) = (     1          0          0      )
                  (     0          1          0      )
                  (     0          0          1      )

 cart.    s( 1) = (  1.0000000  0.0000000  0.0000000 )
                  (  0.0000000  1.0000000  0.0000000 )
                  (  0.0000000  0.0000000  1.0000000 )


      isym =  2     180 deg rotation - cart. axis [0,0,1]        

 cryst.   s( 2) = (    -1          0          0      )    f =(  0.0000000 )
                  (     0         -1          0      )       (  0.0000000 )
                  (     0          0          1      )       (  0.5000000 )

 cart.    s( 2) = ( -1.0000000  0.0000000  0.0000000 )    f =(  0.0000000 )
                  (  0.0000000 -1.0000000  0.0000000 )       (  0.0000000 )
                  (  0.0000000  0.0000000  1.0000000 )       (  1.2998783 )


      isym =  3     180 deg rotation - cart. axis [0,1,0]        

 cryst.   s( 3) = (    -1          0          0      )    f =(  0.0000000 )
                  (     1          1          0      )       (  0.0000000 )
                  (     0          0         -1      )       (  0.5000000 )

 cart.    s( 3) = ( -1.0000000  0.0000000  0.0000000 )    f =(  0.0000000 )
                  (  0.0000000  1.0000000  0.0000000 )       (  0.0000000 )
                  (  0.0000000  0.0000000 -1.0000000 )       (  1.2998783 )


      isym =  4     180 deg rotation - cart. axis [1,0,0]        

 cryst.   s( 4) = (     1          0          0      )
                  (    -1         -1          0      )
                  (     0          0         -1      )

 cart.    s( 4) = (  1.0000000  0.0000000  0.0000000 )
                  (  0.0000000 -1.0000000  0.0000000 )
                  (  0.0000000  0.0000000 -1.0000000 )


      isym =  5      60 deg rotation - cryst. axis [0,0,1]       

 cryst.   s( 5) = (     1          1          0      )    f =(  0.0000000 )
                  (    -1          0          0      )       (  0.0000000 )
                  (     0          0          1      )       (  0.5000000 )

 cart.    s( 5) = (  0.5000000 -0.8660254  0.0000000 )    f =(  0.0000000 )
                  (  0.8660254  0.5000000  0.0000000 )       (  0.0000000 )
                  (  0.0000000  0.0000000  1.0000000 )       (  1.2998783 )


      isym =  6      60 deg rotation - cryst. axis [0,0,-1]      

 cryst.   s( 6) = (     0         -1          0      )    f =(  0.0000000 )
                  (     1          1          0      )       (  0.0000000 )
                  (     0          0          1      )       (  0.5000000 )

 cart.    s( 6) = (  0.5000000  0.8660254  0.0000000 )    f =(  0.0000000 )
                  ( -0.8660254  0.5000000  0.0000000 )       (  0.0000000 )
                  (  0.0000000  0.0000000  1.0000000 )       (  1.2998783 )


      isym =  7     120 deg rotation - cryst. axis [0,0,1]       

 cryst.   s( 7) = (     0          1          0      )
                  (    -1         -1          0      )
                  (     0          0          1      )

 cart.    s( 7) = ( -0.5000000 -0.8660254  0.0000000 )
                  (  0.8660254 -0.5000000  0.0000000 )
                  (  0.0000000  0.0000000  1.0000000 )


      isym =  8     120 deg rotation - cryst. axis [0,0,-1]      

 cryst.   s( 8) = (    -1         -1          0      )
                  (     1          0          0      )
                  (     0          0          1      )

 cart.    s( 8) = ( -0.5000000  0.8660254  0.0000000 )
                  ( -0.8660254 -0.5000000  0.0000000 )
                  (  0.0000000  0.0000000  1.0000000 )


      isym =  9     180 deg rotation - cryst. axis [1,-1,0]      

 cryst.   s( 9) = (     0         -1          0      )    f =(  0.0000000 )
                  (    -1          0          0      )       (  0.0000000 )
                  (     0          0         -1      )       (  0.5000000 )

 cart.    s( 9) = (  0.5000000 -0.8660254  0.0000000 )    f =(  0.0000000 )
                  ( -0.8660254 -0.5000000  0.0000000 )       (  0.0000000 )
                  (  0.0000000  0.0000000 -1.0000000 )       (  1.2998783 )


      isym = 10     180 deg rotation - cryst. axis [2,1,0]       

 cryst.   s(10) = (     1          1          0      )    f =(  0.0000000 )
                  (     0         -1          0      )       (  0.0000000 )
                  (     0          0         -1      )       (  0.5000000 )

 cart.    s(10) = (  0.5000000  0.8660254  0.0000000 )    f =(  0.0000000 )
                  (  0.8660254 -0.5000000  0.0000000 )       (  0.0000000 )
                  (  0.0000000  0.0000000 -1.0000000 )       (  1.2998783 )


      isym = 11     180 deg rotation - cryst. axis [0,1,0]       

 cryst.   s(11) = (    -1         -1          0      )
                  (     0          1          0      )
                  (     0          0         -1      )

 cart.    s(11) = ( -0.5000000 -0.8660254  0.0000000 )
                  ( -0.8660254  0.5000000  0.0000000 )
                  (  0.0000000  0.0000000 -1.0000000 )


      isym = 12     180 deg rotation - cryst. axis [1,1,0]       

 cryst.   s(12) = (     0          1          0      )
                  (     1          0          0      )
                  (     0          0         -1      )

 cart.    s(12) = ( -0.5000000  0.8660254  0.0000000 )
                  (  0.8660254  0.5000000  0.0000000 )
                  (  0.0000000  0.0000000 -1.0000000 )


      isym = 13     inversion                                    

 cryst.   s(13) = (    -1          0          0      )
                  (     0         -1          0      )
                  (     0          0         -1      )

 cart.    s(13) = ( -1.0000000  0.0000000  0.0000000 )
                  (  0.0000000 -1.0000000  0.0000000 )
                  (  0.0000000  0.0000000 -1.0000000 )


      isym = 14     inv. 180 deg rotation - cart. axis [0,0,1]   

 cryst.   s(14) = (     1          0          0      )    f =(  0.0000000 )
                  (     0          1          0      )       (  0.0000000 )
                  (     0          0         -1      )       (  0.5000000 )

 cart.    s(14) = (  1.0000000  0.0000000  0.0000000 )    f =(  0.0000000 )
                  (  0.0000000  1.0000000  0.0000000 )       (  0.0000000 )
                  (  0.0000000  0.0000000 -1.0000000 )       (  1.2998783 )


      isym = 15     inv. 180 deg rotation - cart. axis [0,1,0]   

 cryst.   s(15) = (     1          0          0      )    f =(  0.0000000 )
                  (    -1         -1          0      )       (  0.0000000 )
                  (     0          0          1      )       (  0.5000000 )

 cart.    s(15) = (  1.0000000  0.0000000  0.0000000 )    f =(  0.0000000 )
                  (  0.0000000 -1.0000000  0.0000000 )       (  0.0000000 )
                  (  0.0000000  0.0000000  1.0000000 )       (  1.2998783 )


      isym = 16     inv. 180 deg rotation - cart. axis [1,0,0]   

 cryst.   s(16) = (    -1          0          0      )
                  (     1          1          0      )
                  (     0          0          1      )

 cart.    s(16) = ( -1.0000000  0.0000000  0.0000000 )
                  (  0.0000000  1.0000000  0.0000000 )
                  (  0.0000000  0.0000000  1.0000000 )


      isym = 17     inv.  60 deg rotation - cryst. axis [0,0,1]  

 cryst.   s(17) = (    -1         -1          0      )    f =(  0.0000000 )
                  (     1          0          0      )       (  0.0000000 )
                  (     0          0         -1      )       (  0.5000000 )

 cart.    s(17) = ( -0.5000000  0.8660254  0.0000000 )    f =(  0.0000000 )
                  ( -0.8660254 -0.5000000  0.0000000 )       (  0.0000000 )
                  (  0.0000000  0.0000000 -1.0000000 )       (  1.2998783 )


      isym = 18     inv.  60 deg rotation - cryst. axis [0,0,-1] 

 cryst.   s(18) = (     0          1          0      )    f =(  0.0000000 )
                  (    -1         -1          0      )       (  0.0000000 )
                  (     0          0         -1      )       (  0.5000000 )

 cart.    s(18) = ( -0.5000000 -0.8660254  0.0000000 )    f =(  0.0000000 )
                  (  0.8660254 -0.5000000  0.0000000 )       (  0.0000000 )
                  (  0.0000000  0.0000000 -1.0000000 )       (  1.2998783 )


      isym = 19     inv. 120 deg rotation - cryst. axis [0,0,1]  

 cryst.   s(19) = (     0         -1          0      )
                  (     1          1          0      )
                  (     0          0         -1      )

 cart.    s(19) = (  0.5000000  0.8660254  0.0000000 )
                  ( -0.8660254  0.5000000  0.0000000 )
                  (  0.0000000  0.0000000 -1.0000000 )


      isym = 20     inv. 120 deg rotation - cryst. axis [0,0,-1] 

 cryst.   s(20) = (     1          1          0      )
                  (    -1          0          0      )
                  (     0          0         -1      )

 cart.    s(20) = (  0.5000000 -0.8660254  0.0000000 )
                  (  0.8660254  0.5000000  0.0000000 )
                  (  0.0000000  0.0000000 -1.0000000 )


      isym = 21     inv. 180 deg rotation - cryst. axis [1,-1,0] 

 cryst.   s(21) = (     0          1          0      )    f =(  0.0000000 )
                  (     1          0          0      )       (  0.0000000 )
                  (     0          0          1      )       (  0.5000000 )

 cart.    s(21) = ( -0.5000000  0.8660254  0.0000000 )    f =(  0.0000000 )
                  (  0.8660254  0.5000000  0.0000000 )       (  0.0000000 )
                  (  0.0000000  0.0000000  1.0000000 )       (  1.2998783 )


      isym = 22     inv. 180 deg rotation - cryst. axis [2,1,0]  

 cryst.   s(22) = (    -1         -1          0      )    f =(  0.0000000 )
                  (     0          1          0      )       (  0.0000000 )
                  (     0          0          1      )       (  0.5000000 )

 cart.    s(22) = ( -0.5000000 -0.8660254  0.0000000 )    f =(  0.0000000 )
                  ( -0.8660254  0.5000000  0.0000000 )       (  0.0000000 )
                  (  0.0000000  0.0000000  1.0000000 )       (  1.2998783 )


      isym = 23     inv. 180 deg rotation - cryst. axis [0,1,0]  

 cryst.   s(23) = (     1          1          0      )
                  (     0         -1          0      )
                  (     0          0          1      )

 cart.    s(23) = (  0.5000000  0.8660254  0.0000000 )
                  (  0.8660254 -0.5000000  0.0000000 )
                  (  0.0000000  0.0000000  1.0000000 )


      isym = 24     inv. 180 deg rotation - cryst. axis [1,1,0]  

 cryst.   s(24) = (     0         -1          0      )
                  (    -1          0          0      )
                  (     0          0          1      )

 cart.    s(24) = (  0.5000000 -0.8660254  0.0000000 )
                  ( -0.8660254 -0.5000000  0.0000000 )
                  (  0.0000000  0.0000000  1.0000000 )


     point group D_6h(6/mmm)
     there are 12 classes
     the character table:

       E     2C6   2C3   C2    3C2'  3C2'' i     2S3   2S6   s_h   3s_d  3s_v 
A_1g   1.00  1.00  1.00  1.00  1.00  1.00  1.00  1.00  1.00  1.00  1.00  1.00
A_2g   1.00  1.00  1.00  1.00 -1.00 -1.00  1.00  1.00  1.00  1.00 -1.00 -1.00
B_1g   1.00 -1.00  1.00 -1.00  1.00 -1.00  1.00 -1.00  1.00 -1.00  1.00 -1.00
B_2g   1.00 -1.00  1.00 -1.00 -1.00  1.00  1.00 -1.00  1.00 -1.00 -1.00  1.00
E_1g   2.00  1.00 -1.00 -2.00  0.00  0.00  2.00  1.00 -1.00 -2.00  0.00  0.00
E_2g   2.00 -1.00 -1.00  2.00  0.00  0.00  2.00 -1.00 -1.00  2.00  0.00  0.00
A_1u   1.00  1.00  1.00  1.00  1.00  1.00 -1.00 -1.00 -1.00 -1.00 -1.00 -1.00
A_2u   1.00  1.00  1.00  1.00 -1.00 -1.00 -1.00 -1.00 -1.00 -1.00  1.00  1.00
B_1u   1.00 -1.00  1.00 -1.00  1.00 -1.00 -1.00  1.00 -1.00  1.00 -1.00  1.00
B_2u   1.00 -1.00  1.00 -1.00 -1.00  1.00 -1.00  1.00 -1.00  1.00  1.00 -1.00
E_1u   2.00  1.00 -1.00 -2.00  0.00  0.00 -2.00 -1.00  1.00  2.00  0.00  0.00
E_2u   2.00 -1.00 -1.00  2.00  0.00  0.00 -2.00  1.00  1.00 -2.00  0.00  0.00

     the symmetry operations in each class and the name of the first element:

     E        1
          identity                                               
     2C6      5    6
           60 deg rotation - cryst. axis [0,0,1]                 
     2C3      7    8
          120 deg rotation - cryst. axis [0,0,1]                 
     C2       2
          180 deg rotation - cart. axis [0,0,1]                  
     3C2'     4   12   11
          180 deg rotation - cart. axis [1,0,0]                  
     3C2''    3    9   10
          180 deg rotation - cart. axis [0,1,0]                  
     i       13
          inversion                                              
     2S3     17   18
          inv.  60 deg rotation - cryst. axis [0,0,1]            
     2S6     19   20
          inv. 120 deg rotation - cryst. axis [0,0,1]            
     s_h     14
          inv. 180 deg rotation - cart. axis [0,0,1]             
     3s_d    16   24   23
          inv. 180 deg rotation - cart. axis [1,0,0]             
     3s_v    15   21   22
          inv. 180 deg rotation - cart. axis [0,1,0]             

   Cartesian axes

     site n.     atom                  positions (alat units)
         1           C   tau(   1) = (  -0.5000000   0.8660254   1.9498175  )
         2           C   tau(   2) = (   0.5000005   0.2886748   1.9498175  )
         3           C   tau(   3) = (  -0.5000000   0.8660254   0.6499392  )
         4           C   tau(   4) = (  -0.0000005   0.5773506   0.6499392  )

   Crystallographic axes

     site n.     atom                  positions (cryst. coord.)
         1           C   tau(   1) = (  0.0000000  1.0000000  0.7500000  )
         2           C   tau(   2) = (  0.6666670  0.3333330  0.7500000  )
         3           C   tau(   3) = (  0.0000000  1.0000000  0.2500000  )
         4           C   tau(   4) = (  0.3333330  0.6666670  0.2500000  )

     number of k points=     6  Marzari-Vanderbilt smearing, width (Ry)=  0.0200
                       cart. coord. in units 2pi/alat
        k(    1) = (   0.1250000   0.2165064   0.0961628), wk =   0.2500000
        k(    2) = (   0.1250000   0.5051815   0.0961628), wk =   0.5000000
        k(    3) = (   0.1250000  -0.3608439   0.0961628), wk =   0.5000000
        k(    4) = (   0.1250000  -0.0721688   0.0961628), wk =   0.2500000
        k(    5) = (   0.3750000   0.6495191   0.0961628), wk =   0.2500000
        k(    6) = (   0.3750000  -0.2165064   0.0961628), wk =   0.2500000

                       cryst. coord.
        k(    1) = (   0.1250000   0.1250000   0.2500000), wk =   0.2500000
        k(    2) = (   0.1250000   0.3750000   0.2500000), wk =   0.5000000
        k(    3) = (   0.1250000  -0.3750000   0.2500000), wk =   0.5000000
        k(    4) = (   0.1250000  -0.1250000   0.2500000), wk =   0.2500000
        k(    5) = (   0.3750000   0.3750000   0.2500000), wk =   0.2500000
        k(    6) = (   0.3750000  -0.3750000   0.2500000), wk =   0.2500000

     Dense  grid:    14339 G-vectors     FFT dimensions: (  24,  24,  60)

     Smooth grid:     5053 G-vectors     FFT dimensions: (  18,  18,  48)

     Dynamical RAM for                 wfc:       0.01 MB

     Dynamical RAM for     wfc (w. buffer):       0.10 MB

     Dynamical RAM for           str. fact:       0.03 MB

     Dynamical RAM for           local pot:       0.00 MB

     Dynamical RAM for          nlocal pot:       0.04 MB

     Dynamical RAM for                qrad:       0.71 MB

     Dynamical RAM for          rho,v,vnew:       0.19 MB

     Dynamical RAM for               rhoin:       0.06 MB

     Dynamical RAM for            rho*nmix:       0.44 MB

     Dynamical RAM for           G-vectors:       0.11 MB

     Dynamical RAM for          h,s,v(r/c):       0.03 MB

     Dynamical RAM for          <psi|beta>:       0.01 MB

     Dynamical RAM for                 psi:       0.03 MB

     Dynamical RAM for                hpsi:       0.03 MB

     Dynamical RAM for                spsi:       0.03 MB

     Dynamical RAM for      wfcinit/wfcrot:       0.04 MB

     Dynamical RAM for           addusdens:       1.29 MB

     Dynamical RAM for          addusforce:       1.47 MB

     Dynamical RAM for         addusstress:       1.37 MB

     Estimated static dynamical RAM per process >       1.90 MB

     Estimated max dynamical RAM per process >       3.37 MB

     Estimated total dynamical RAM >      26.97 MB

     Initial potential from superposition of free atoms

     starting charge   15.99979, renormalised to   16.00000


     %%%%%%%%%%%%%%%%%%%%%%%%%%%%%%%%%%%%%%%%%%%%%%%%%%%%%%%%%%%%%%%%%%%%%%%%
     %                                                                      %
     % You are using vdW-DF, which was implemented by the Thonhauser group. %
     % Please cite the following two papers that made this development      %
     % possible and the two reviews that describe the various versions:     %
     %                                                                      %
     %   T. Thonhauser et al., PRL 115, 136402 (2015).                      %
     %   T. Thonhauser et al., PRB 76, 125112 (2007).                       %
     %   K. Berland et al., Rep. Prog. Phys. 78, 066501 (2015).             %
     %   D.C. Langreth et al., J. Phys.: Condens. Matter 21, 084203 (2009). %
     %                                                                      %
     %                                                                      %
     % If you are calculating the stress with vdW-DF, please also cite:     %
     %                                                                      %
     %   R. Sabatini et al., J. Phys.: Condens. Matter 24, 424209 (2012).   %
     %                                                                      %
     %%%%%%%%%%%%%%%%%%%%%%%%%%%%%%%%%%%%%%%%%%%%%%%%%%%%%%%%%%%%%%%%%%%%%%%%


     Carrying out vdW-DF run using the following parameters:
     Nqs    =  20  Npoints =  1024  r_max =  100.000
     q_mesh =  0.00001000  0.04494208  0.09755937  0.15916263
               0.23128650  0.31572767  0.41458969  0.53033537
               0.66584808  0.82450364  1.01025438  1.22772762
               1.48234092  1.78043706  2.12944203  2.53805004
               3.01644009  3.57652955  4.23227104  5.00000000


     -----------------------------------------------
     Non-local corr. energy    =       0.11532865 Ry
     -----------------------------------------------

     Starting wfcs are   16 randomized atomic wfcs

     total cpu time spent up to now is       16.3 secs

     Self-consistent Calculation

     iteration #  1     ecut=    30.00 Ry     beta= 0.30
     Davidson diagonalization with overlap
     ethr =  1.00E-02,  avg # of iterations =  2.8


     -----------------------------------------------
     Non-local corr. energy    =       0.12827929 Ry
     -----------------------------------------------


     total cpu time spent up to now is       16.4 secs

     total energy              =     -45.92518404 Ry
     estimated scf accuracy    <       0.40300370 Ry

     iteration #  2     ecut=    30.00 Ry     beta= 0.30
     Davidson diagonalization with overlap
     ethr =  2.52E-03,  avg # of iterations =  1.3


     -----------------------------------------------
     Non-local corr. energy    =       0.15001745 Ry
     -----------------------------------------------


     total cpu time spent up to now is       16.4 secs

     total energy              =     -45.85401512 Ry
     estimated scf accuracy    <       0.14888745 Ry

     iteration #  3     ecut=    30.00 Ry     beta= 0.30
     Davidson diagonalization with overlap
     ethr =  9.31E-04,  avg # of iterations =  3.5


     -----------------------------------------------
     Non-local corr. energy    =       0.14422572 Ry
     -----------------------------------------------


     total cpu time spent up to now is       16.5 secs

     total energy              =     -45.87896895 Ry
     estimated scf accuracy    <       0.00326376 Ry

     iteration #  4     ecut=    30.00 Ry     beta= 0.30
     Davidson diagonalization with overlap
     ethr =  2.04E-05,  avg # of iterations =  5.0


     -----------------------------------------------
     Non-local corr. energy    =       0.14834374 Ry
     -----------------------------------------------


     total cpu time spent up to now is       16.5 secs

     total energy              =     -45.87783621 Ry
     estimated scf accuracy    <       0.00519127 Ry

     iteration #  5     ecut=    30.00 Ry     beta= 0.30
     Davidson diagonalization with overlap
     ethr =  2.04E-05,  avg # of iterations =  2.8


     -----------------------------------------------
     Non-local corr. energy    =       0.14838303 Ry
     -----------------------------------------------


     total cpu time spent up to now is       16.6 secs

     total energy              =     -45.87858079 Ry
     estimated scf accuracy    <       0.00000173 Ry

     iteration #  6     ecut=    30.00 Ry     beta= 0.30
     Davidson diagonalization with overlap
     ethr =  1.08E-08,  avg # of iterations =  3.8


     -----------------------------------------------
     Non-local corr. energy    =       0.14839374 Ry
     -----------------------------------------------


     total cpu time spent up to now is       16.6 secs

     total energy              =     -45.87858518 Ry
     estimated scf accuracy    <       0.00000128 Ry

     iteration #  7     ecut=    30.00 Ry     beta= 0.30
     Davidson diagonalization with overlap
     ethr =  8.00E-09,  avg # of iterations =  2.0


     -----------------------------------------------
     Non-local corr. energy    =       0.14840620 Ry
     -----------------------------------------------


     total cpu time spent up to now is       16.7 secs

     total energy              =     -45.87858588 Ry
     estimated scf accuracy    <       0.00000003 Ry

     iteration #  8     ecut=    30.00 Ry     beta= 0.30
     Davidson diagonalization with overlap
     ethr =  1.75E-10,  avg # of iterations =  2.0


     -----------------------------------------------
     Non-local corr. energy    =       0.14839988 Ry
     -----------------------------------------------


     total cpu time spent up to now is       16.7 secs

     total energy              =     -45.87858608 Ry
     estimated scf accuracy    <       0.00000001 Ry

     iteration #  9     ecut=    30.00 Ry     beta= 0.30
     Davidson diagonalization with overlap
     ethr =  9.11E-11,  avg # of iterations =  2.0


     -----------------------------------------------
     Non-local corr. energy    =       0.14839738 Ry
     -----------------------------------------------


     total cpu time spent up to now is       16.8 secs

     End of self-consistent calculation

          k = 0.1250 0.2165 0.0962 (   626 PWs)   bands (ev):

   -11.0372 -10.7630   0.4566   1.1176   1.1634   2.0694   2.2113   2.2432
    14.4609  15.4279  15.8013  16.6792

     occupation numbers 
     1.0000   1.0000   1.0000   1.0000   1.0000   1.0000   1.0000   1.0000
     0.0000   0.0000   0.0000   0.0000

          k = 0.1250 0.5052 0.0962 (   635 PWs)   bands (ev):

    -7.5383  -7.3315  -4.6224  -4.4660  -0.0587   0.0233   4.3964   5.4465
     9.4191  10.1031  16.2976  16.7010

     occupation numbers 
     1.0000   1.0000   1.0000   1.0000   1.0000   1.0000   1.0000   1.0000
     0.0000   0.0000   0.0000   0.0000

          k = 0.1250-0.3608 0.0962 (   638 PWs)   bands (ev):

    -9.5969  -9.3474  -1.6543  -1.5442   0.7065   0.7749   2.1601   3.6363
    12.3468  12.9462  16.0708  16.6860

     occupation numbers 
     1.0000   1.0000   1.0000   1.0000   1.0000   1.0000   1.0000   1.0000
     0.0000   0.0000   0.0000   0.0000

          k = 0.1250-0.0722 0.0962 (   616 PWs)   bands (ev):

   -11.7694 -11.4825  -0.4249   1.2413   2.8925   2.9421   3.5651   3.6019
    13.6215  15.8421  15.9836  17.4757

     occupation numbers 
     1.0000   1.0000   1.0000   1.0000   1.0000   1.0000   1.0000   1.0000
     0.0000   0.0000   0.0000   0.0000

          k = 0.3750 0.6495 0.0962 (   638 PWs)   bands (ev):

    -5.9511  -5.8480  -4.9984  -4.9595  -2.3019  -2.2034   6.0807   6.6784
     8.4183   8.5912  18.4364  18.5524

     occupation numbers 
     1.0000   1.0000   1.0000   1.0000   1.0000   1.0000   1.0009   0.9991
     0.0000   0.0000   0.0000   0.0000

          k = 0.3750-0.2165 0.0962 (   632 PWs)   bands (ev):

    -8.8911  -8.6543  -3.3309  -3.1822   1.2880   1.3445   2.9431   4.2996
    10.8625  11.7203  14.9794  15.3103

     occupation numbers 
     1.0000   1.0000   1.0000   1.0000   1.0000   1.0000   1.0000   1.0000
     0.0000   0.0000   0.0000   0.0000

     the Fermi energy is     6.9284 ev

!    total energy              =     -45.87858627 Ry
     estimated scf accuracy    <          7.0E-10 Ry
     smearing contrib. (-TS)   =       0.00041826 Ry
     internal energy E=F+TS    =     -45.87900453 Ry

     The total energy is F=E-TS. E is the sum of the following terms:
     one-electron contribution =      -7.79921510 Ry
     hartree contribution      =      12.20150623 Ry
     xc contribution           =     -14.40530008 Ry
     ewald contribution        =     -35.87599557 Ry

     convergence has been achieved in   9 iterations

     Forces acting on atoms (cartesian axes, Ry/au):

     atom    1 type  1   force =    -0.00000000    0.00000000    0.00000000
     atom    2 type  1   force =     0.00000000    0.00000000    0.00000000
     atom    3 type  1   force =     0.00000000    0.00000000    0.00000000
     atom    4 type  1   force =     0.00000000    0.00000000    0.00000000
     The non-local contrib.  to forces
     atom    1 type  1   force =    -0.00000000   -0.00000000    0.00000000
     atom    2 type  1   force =    -0.00000000   -0.00000000    0.00000000
     atom    3 type  1   force =     0.00000000    0.00000000    0.00000000
     atom    4 type  1   force =    -0.00000000   -0.00000000    0.00000000
     The ionic contribution  to forces
     atom    1 type  1   force =     0.00000852   -0.00000492   -0.00000000
     atom    2 type  1   force =    -0.00000856    0.00000494    0.00000000
     atom    3 type  1   force =    -0.00000852    0.00000492    0.00000000
     atom    4 type  1   force =     0.00000856   -0.00000494    0.00000000
     The local contribution  to forces
     atom    1 type  1   force =     0.00000000    0.00000000    0.00000000
     atom    2 type  1   force =    -0.00000822    0.00000475    0.00000000
     atom    3 type  1   force =    -0.00000000   -0.00000000    0.00000000
     atom    4 type  1   force =     0.00000822   -0.00000475    0.00000000
     The core correction contribution to forces
     atom    1 type  1   force =     0.00000000    0.00000000    0.00000000
     atom    2 type  1   force =     0.00000000    0.00000000    0.00000000
     atom    3 type  1   force =     0.00000000    0.00000000    0.00000000
     atom    4 type  1   force =     0.00000000    0.00000000    0.00000000
     The Hubbard contrib.    to forces
     atom    1 type  1   force =     0.00000000    0.00000000    0.00000000
     atom    2 type  1   force =     0.00000000    0.00000000    0.00000000
     atom    3 type  1   force =     0.00000000    0.00000000    0.00000000
     atom    4 type  1   force =     0.00000000    0.00000000    0.00000000
     The SCF correction term to forces
     atom    1 type  1   force =     0.00000000   -0.00000000   -0.00000000
     atom    2 type  1   force =     0.00000000   -0.00000000   -0.00000000
     atom    3 type  1   force =    -0.00000000    0.00000000    0.00000000
     atom    4 type  1   force =    -0.00000000    0.00000000    0.00000000

     Total force =     0.000000     Total SCF correction =     0.000000


     Computing stress (Cartesian axis) and pressure

          total   stress  (Ry/bohr**3)                   (kbar)     P=        8.81
  -0.00007035  -0.00000000   0.00000000          -10.35       -0.00        0.00
  -0.00000000  -0.00007035  -0.00000000           -0.00      -10.35       -0.00
   0.00000000  -0.00000000   0.00032032            0.00       -0.00       47.12

     kinetic stress (kbar)  11086.60      0.00      0.00
                                0.00  11086.60      0.00
                                0.00      0.00  12877.36

     local   stress (kbar) -16917.58      0.01      0.00
                                0.01 -16917.57     -0.00
                                0.00     -0.00  24227.90

     nonloc. stress (kbar)   -479.53      0.00      0.00
                                0.00   -479.53      0.00
                                0.00      0.00   -480.21

     hartree stress (kbar)   6772.18     -0.00     -0.00
                               -0.00   6772.18      0.00
                               -0.00      0.00  -5666.62

     exc-cor stress (kbar)  -2845.54      0.00      0.00
                                0.00  -2845.54     -0.00
                                0.00     -0.00  -3092.61

     corecor stress (kbar)      0.00      0.00      0.00
                                0.00      0.00      0.00
                                0.00      0.00      0.00

     ewald   stress (kbar)   2365.81     -0.03     -0.00
                               -0.03   2365.78     -0.00
                               -0.00     -0.00 -27894.47

     hubbard stress (kbar)      0.00      0.00      0.00
                                0.00      0.00      0.00
                                0.00      0.00      0.00

     DFT-D   stress (kbar)      0.00      0.00      0.00
                                0.00      0.00      0.00
                                0.00      0.00      0.00

     XDM     stress (kbar)      0.00      0.00      0.00
                                0.00      0.00      0.00
                                0.00      0.00      0.00

     dft-nl  stress (kbar)      7.73      0.00     -0.00
                                0.00      7.73     -0.00
                               -0.00     -0.00     75.76

     TS-vdW  stress (kbar)      0.00      0.00      0.00
                                0.00      0.00      0.00
                                0.00      0.00      0.00



     BFGS Geometry Optimization
     Energy error            =      0.0E+00
     Gradient error          =      1.4E-22
     Cell gradient error     =      3.2E-04


     number of scf cycles    =   1
     number of bfgs steps    =   0

     enthalpy new            =     -45.8785862736 Ry

     new trust radius        =       0.0241755133 bohr
     new conv_thr            =       0.0000000010 Ry

     new unit-cell volume =    228.86222 a.u.^3 (    33.91388 Ang^3 )
     density =      2.35240 g/cm^3

CELL_PARAMETERS (alat=  4.66006462)
   0.998241179  -0.000000000   0.000000000
  -0.499120590   0.864502220  -0.000000000
   0.000000000  -0.000000000   2.620575642

ATOMIC_POSITIONS (crystal)
C            -0.0000000000        1.0000000000        0.7500000000
C             0.6666670000        0.3333330000        0.7500000000
C            -0.0000000000        1.0000000000        0.2500000000
C             0.3333330000        0.6666670000        0.2500000000



     Writing output data file ./tmp/graphite.save/
     NEW-OLD atomic charge density approx. for the potential


     -----------------------------------------------
     Non-local corr. energy    =       0.14955368 Ry
     -----------------------------------------------

     extrapolated charge   16.07113, renormalised to   16.00000

     total cpu time spent up to now is       16.9 secs

     Self-consistent Calculation

     iteration #  1     ecut=    30.00 Ry     beta= 0.30
     Davidson diagonalization with overlap
     ethr =  1.00E-06,  avg # of iterations =  4.0


     -----------------------------------------------
     Non-local corr. energy    =       0.14886453 Ry
     -----------------------------------------------


     total cpu time spent up to now is       17.0 secs

     total energy              =     -45.87898289 Ry
     estimated scf accuracy    <       0.00004364 Ry

     iteration #  2     ecut=    30.00 Ry     beta= 0.30
     Davidson diagonalization with overlap
     ethr =  2.73E-07,  avg # of iterations =  3.3


     -----------------------------------------------
     Non-local corr. energy    =       0.14893097 Ry
     -----------------------------------------------


     total cpu time spent up to now is       17.0 secs

     total energy              =     -45.87914252 Ry
     estimated scf accuracy    <       0.00005926 Ry

     iteration #  3     ecut=    30.00 Ry     beta= 0.30
     Davidson diagonalization with overlap
     ethr =  2.73E-07,  avg # of iterations =  1.0


     -----------------------------------------------
     Non-local corr. energy    =       0.14930642 Ry
     -----------------------------------------------


     total cpu time spent up to now is       17.1 secs

     total energy              =     -45.87911940 Ry
     estimated scf accuracy    <       0.00004082 Ry

     iteration #  4     ecut=    30.00 Ry     beta= 0.30
     Davidson diagonalization with overlap
     ethr =  2.55E-07,  avg # of iterations =  2.0


     -----------------------------------------------
     Non-local corr. energy    =       0.14924374 Ry
     -----------------------------------------------


     total cpu time spent up to now is       17.1 secs

     total energy              =     -45.87912859 Ry
     estimated scf accuracy    <       0.00000613 Ry

     iteration #  5     ecut=    30.00 Ry     beta= 0.30
     Davidson diagonalization with overlap
     ethr =  3.83E-08,  avg # of iterations =  1.0


     -----------------------------------------------
     Non-local corr. energy    =       0.14912469 Ry
     -----------------------------------------------


     total cpu time spent up to now is       17.2 secs

     total energy              =     -45.87912756 Ry
     estimated scf accuracy    <       0.00000179 Ry

     iteration #  6     ecut=    30.00 Ry     beta= 0.30
     Davidson diagonalization with overlap
     ethr =  1.12E-08,  avg # of iterations =  2.0


     -----------------------------------------------
     Non-local corr. energy    =       0.14917070 Ry
     -----------------------------------------------


     total cpu time spent up to now is       17.2 secs

     total energy              =     -45.87912786 Ry
     estimated scf accuracy    <       0.00000070 Ry

     iteration #  7     ecut=    30.00 Ry     beta= 0.30
     Davidson diagonalization with overlap
     ethr =  4.36E-09,  avg # of iterations =  2.0


     -----------------------------------------------
     Non-local corr. energy    =       0.14916979 Ry
     -----------------------------------------------


     total cpu time spent up to now is       17.2 secs

     End of self-consistent calculation

          k = 0.1252 0.2169 0.0954 (   626 PWs)   bands (ev):

   -11.1208 -10.8628   0.4009   1.0603   1.1027   1.9524   2.1482   2.1777
    14.2895  15.4310  15.7852  16.6636

     occupation numbers 
     1.0000   1.0000   1.0000   1.0000   1.0000   1.0000   1.0000   1.0000
     0.0000   0.0000   0.0000   0.0000

          k = 0.1252 0.5061 0.0954 (   635 PWs)   bands (ev):

    -7.6112  -7.4170  -4.6947  -4.5481  -0.1280  -0.0519   4.3535   5.3632
     9.3832  10.0444  16.3098  16.6934

     occupation numbers 
     1.0000   1.0000   1.0000   1.0000   1.0000   1.0000   1.0000   1.0000
     0.0000   0.0000   0.0000   0.0000

          k = 0.1252-0.3615 0.0954 (   638 PWs)   bands (ev):

    -9.6765  -9.4421  -1.7171  -1.6144   0.6390   0.7025   2.1108   3.5304
    12.3335  12.9080  15.9296  16.6889

     occupation numbers 
     1.0000   1.0000   1.0000   1.0000   1.0000   1.0000   1.0000   1.0000
     0.0000   0.0000   0.0000   0.0000

          k = 0.1252-0.0723 0.0954 (   616 PWs)   bands (ev):

   -11.8549 -11.5849  -0.4840   1.1192   2.8381   2.8839   3.5091   3.5430
    13.4398  15.8289  15.9639  17.4864

     occupation numbers 
     1.0000   1.0000   1.0000   1.0000   1.0000   1.0000   1.0000   1.0000
     0.0000   0.0000   0.0000   0.0000

          k = 0.3757 0.6507 0.0954 (   638 PWs)   bands (ev):

    -6.0177  -5.9212  -5.0754  -5.0382  -2.3820  -2.2896   6.0432   6.6166
     8.3712   8.5295  18.3887  18.5116

     occupation numbers 
     1.0000   1.0000   1.0000   1.0000   1.0000   1.0000   1.0013   0.9987
     0.0000   0.0000   0.0000   0.0000

          k = 0.3757-0.2169 0.0954 (   632 PWs)   bands (ev):

    -8.9686  -8.7462  -3.3989  -3.2599   1.2219   1.2740   2.8962   4.2006
    10.8406  11.6663  14.9866  15.2965

     occupation numbers 
     1.0000   1.0000   1.0000   1.0000   1.0000   1.0000   1.0000   1.0000
     0.0000   0.0000   0.0000   0.0000

     the Fermi energy is     6.8663 ev

!    total energy              =     -45.87912797 Ry
     estimated scf accuracy    <          2.8E-10 Ry
     smearing contrib. (-TS)   =       0.00042311 Ry
     internal energy E=F+TS    =     -45.87955108 Ry

     The total energy is F=E-TS. E is the sum of the following terms:
     one-electron contribution =      -8.42517887 Ry
     hartree contribution      =      12.47960531 Ry
     xc contribution           =     -14.41821890 Ry
     ewald contribution        =     -35.51575861 Ry

     convergence has been achieved in   7 iterations

     Forces acting on atoms (cartesian axes, Ry/au):

     atom    1 type  1   force =     0.00000000    0.00000000    0.00000000
     atom    2 type  1   force =    -0.00000000   -0.00000000   -0.00000000
     atom    3 type  1   force =     0.00000000    0.00000000    0.00000000
     atom    4 type  1   force =    -0.00000000   -0.00000000    0.00000000
     The non-local contrib.  to forces
     atom    1 type  1   force =     0.00000000   -0.00000000   -0.00000000
     atom    2 type  1   force =    -0.00000000   -0.00000000   -0.00000000
     atom    3 type  1   force =     0.00000000    0.00000000    0.00000000
     atom    4 type  1   force =    -0.00000000   -0.00000000   -0.00000000
     The ionic contribution  to forces
     atom    1 type  1   force =     0.00000855   -0.00000494   -0.00000000
     atom    2 type  1   force =    -0.00000858    0.00000496   -0.00000000
     atom    3 type  1   force =    -0.00000855    0.00000494    0.00000000
     atom    4 type  1   force =     0.00000858   -0.00000496    0.00000000
     The local contribution  to forces
     atom    1 type  1   force =    -0.00000000    0.00000000    0.00000000
     atom    2 type  1   force =    -0.00000820    0.00000473    0.00000000
     atom    3 type  1   force =    -0.00000000   -0.00000000    0.00000000
     atom    4 type  1   force =     0.00000820   -0.00000473    0.00000000
     The core correction contribution to forces
     atom    1 type  1   force =     0.00000000    0.00000000    0.00000000
     atom    2 type  1   force =     0.00000000    0.00000000    0.00000000
     atom    3 type  1   force =     0.00000000    0.00000000    0.00000000
     atom    4 type  1   force =     0.00000000    0.00000000    0.00000000
     The Hubbard contrib.    to forces
     atom    1 type  1   force =     0.00000000    0.00000000    0.00000000
     atom    2 type  1   force =     0.00000000    0.00000000    0.00000000
     atom    3 type  1   force =     0.00000000    0.00000000    0.00000000
     atom    4 type  1   force =     0.00000000    0.00000000    0.00000000
     The SCF correction term to forces
     atom    1 type  1   force =     0.00000000   -0.00000000   -0.00000000
     atom    2 type  1   force =    -0.00000000    0.00000000   -0.00000000
     atom    3 type  1   force =    -0.00000000    0.00000000   -0.00000000
     atom    4 type  1   force =     0.00000000   -0.00000000   -0.00000000

     Total force =     0.000000     Total SCF correction =     0.000000


     Computing stress (Cartesian axis) and pressure

          total   stress  (Ry/bohr**3)                   (kbar)     P=       21.82
   0.00008258  -0.00000000  -0.00000000           12.15       -0.00       -0.00
  -0.00000000   0.00008258  -0.00000000           -0.00       12.15       -0.00
  -0.00000000  -0.00000000   0.00027987           -0.00       -0.00       41.17

     kinetic stress (kbar)  11059.04      0.00     -0.00
                                0.00  11059.04      0.00
                               -0.00      0.00  12828.51

     local   stress (kbar) -17291.90      0.01     -0.00
                                0.01 -17291.88     -0.00
                               -0.00     -0.00  24616.88

     nonloc. stress (kbar)   -481.99     -0.00      0.00
                               -0.00   -481.99      0.00
                                0.00     -0.00   -481.23

     hartree stress (kbar)   6924.08      0.00     -0.00
                                0.00   6924.08      0.00
                               -0.00      0.00  -5826.68

     exc-cor stress (kbar)  -2835.44     -0.00      0.00
                               -0.00  -2835.44      0.00
                                0.00      0.00  -3082.84

     corecor stress (kbar)      0.00      0.00      0.00
                                0.00      0.00      0.00
                                0.00      0.00      0.00

     ewald   stress (kbar)   2630.74     -0.03      0.00
                               -0.03   2630.71     -0.00
                                0.00     -0.00 -28089.82

     hubbard stress (kbar)      0.00      0.00      0.00
                                0.00      0.00      0.00
                                0.00      0.00      0.00

     DFT-D   stress (kbar)      0.00      0.00      0.00
                                0.00      0.00      0.00
                                0.00      0.00      0.00

     XDM     stress (kbar)      0.00      0.00      0.00
                                0.00      0.00      0.00
                                0.00      0.00      0.00

     dft-nl  stress (kbar)      7.62     -0.00      0.00
                               -0.00      7.62      0.00
                                0.00      0.00     76.34

     TS-vdW  stress (kbar)      0.00      0.00      0.00
                                0.00      0.00      0.00
                                0.00      0.00      0.00


     Energy error            =      5.4E-04
     Gradient error          =      2.4E-22
     Cell gradient error     =      2.8E-04


     number of scf cycles    =   2
     number of bfgs steps    =   1

     enthalpy old            =     -45.8785862736 Ry
     enthalpy new            =     -45.8791279686 Ry

     CASE: enthalpy_new < enthalpy_old

     new trust radius        =       0.0360554106 bohr
     new conv_thr            =            1.0E-11 Ry

     new unit-cell volume =    231.64628 a.u.^3 (    34.32644 Ang^3 )
     density =      2.32413 g/cm^3

CELL_PARAMETERS (alat=  4.66006462)
   0.998363576  -0.000000000   0.000000000
  -0.499181788   0.864608219  -0.000000000
   0.000000000  -0.000000000   2.651804068

ATOMIC_POSITIONS (crystal)
C             0.0000000000        1.0000000000        0.7500000000
C             0.6666670000        0.3333330000        0.7500000000
C             0.0000000000        1.0000000000        0.2500000000
C             0.3333330000        0.6666670000        0.2500000000



     Writing output data file ./tmp/graphite.save/
     NEW-OLD atomic charge density approx. for the potential


     -----------------------------------------------
     Non-local corr. energy    =       0.15173845 Ry
     -----------------------------------------------

     extrapolated charge   16.19229, renormalised to   16.00000

     total cpu time spent up to now is       17.4 secs

     Self-consistent Calculation

     iteration #  1     ecut=    30.00 Ry     beta= 0.30
     Davidson diagonalization with overlap
     ethr =  1.00E-06,  avg # of iterations =  7.8


     -----------------------------------------------
     Non-local corr. energy    =       0.14971109 Ry
     -----------------------------------------------


     total cpu time spent up to now is       17.4 secs

     total energy              =     -45.87856035 Ry
     estimated scf accuracy    <       0.00053892 Ry

     iteration #  2     ecut=    30.00 Ry     beta= 0.30
     Davidson diagonalization with overlap
     c_bands:  1 eigenvalues not converged
     ethr =  3.37E-06,  avg # of iterations =  7.2


     -----------------------------------------------
     Non-local corr. energy    =       0.14991467 Ry
     -----------------------------------------------


     total cpu time spent up to now is       17.5 secs

     total energy              =     -45.87987408 Ry
     estimated scf accuracy    <       0.00024259 Ry

     iteration #  3     ecut=    30.00 Ry     beta= 0.30
     Davidson diagonalization with overlap
     ethr =  1.52E-06,  avg # of iterations =  2.8


     -----------------------------------------------
     Non-local corr. energy    =       0.15070276 Ry
     -----------------------------------------------


     total cpu time spent up to now is       17.5 secs

     total energy              =     -45.87978606 Ry
     estimated scf accuracy    <       0.00014096 Ry

     iteration #  4     ecut=    30.00 Ry     beta= 0.30
     Davidson diagonalization with overlap
     ethr =  8.81E-07,  avg # of iterations =  2.0


     -----------------------------------------------
     Non-local corr. energy    =       0.15056626 Ry
     -----------------------------------------------


     total cpu time spent up to now is       17.6 secs

     total energy              =     -45.87981861 Ry
     estimated scf accuracy    <       0.00002243 Ry

     iteration #  5     ecut=    30.00 Ry     beta= 0.30
     Davidson diagonalization with overlap
     ethr =  1.40E-07,  avg # of iterations =  1.0


     -----------------------------------------------
     Non-local corr. energy    =       0.15043855 Ry
     -----------------------------------------------


     total cpu time spent up to now is       17.6 secs

     total energy              =     -45.87981628 Ry
     estimated scf accuracy    <       0.00000510 Ry

     iteration #  6     ecut=    30.00 Ry     beta= 0.30
     Davidson diagonalization with overlap
     ethr =  3.19E-08,  avg # of iterations =  2.0


     -----------------------------------------------
     Non-local corr. energy    =       0.15045939 Ry
     -----------------------------------------------


     total cpu time spent up to now is       17.7 secs

     total energy              =     -45.87981719 Ry
     estimated scf accuracy    <          9.3E-09 Ry

     iteration #  7     ecut=    30.00 Ry     beta= 0.30
     Davidson diagonalization with overlap
     ethr =  5.83E-11,  avg # of iterations =  2.5


     -----------------------------------------------
     Non-local corr. energy    =       0.15043950 Ry
     -----------------------------------------------


     total cpu time spent up to now is       17.7 secs

     total energy              =     -45.87981715 Ry
     estimated scf accuracy    <       0.00000010 Ry

     iteration #  8     ecut=    30.00 Ry     beta= 0.30
     Davidson diagonalization with overlap
     ethr =  5.83E-11,  avg # of iterations =  2.0


     -----------------------------------------------
     Non-local corr. energy    =       0.15044097 Ry
     -----------------------------------------------


     total cpu time spent up to now is       17.8 secs

     total energy              =     -45.87981717 Ry
     estimated scf accuracy    <          2.9E-09 Ry

     iteration #  9     ecut=    30.00 Ry     beta= 0.30
     Davidson diagonalization with overlap
     ethr =  1.84E-11,  avg # of iterations =  1.0


     -----------------------------------------------
     Non-local corr. energy    =       0.15044196 Ry
     -----------------------------------------------


     total cpu time spent up to now is       17.8 secs

     total energy              =     -45.87981717 Ry
     estimated scf accuracy    <          1.4E-09 Ry

     iteration # 10     ecut=    30.00 Ry     beta= 0.30
     Davidson diagonalization with overlap
     ethr =  8.66E-12,  avg # of iterations =  1.7


     -----------------------------------------------
     Non-local corr. energy    =       0.15044288 Ry
     -----------------------------------------------


     total cpu time spent up to now is       17.9 secs

     total energy              =     -45.87981717 Ry
     estimated scf accuracy    <          2.7E-10 Ry

     iteration # 11     ecut=    30.00 Ry     beta= 0.30
     Davidson diagonalization with overlap
     ethr =  1.70E-12,  avg # of iterations =  2.0


     -----------------------------------------------
     Non-local corr. energy    =       0.15044283 Ry
     -----------------------------------------------


     total cpu time spent up to now is       17.9 secs

     End of self-consistent calculation

          k = 0.1252 0.2169 0.0943 (   626 PWs)   bands (ev):

   -11.2482 -11.0119   0.2992   0.9202   0.9583   1.7659   2.0074   2.0339
    14.0028  15.3046  15.6332  16.5179

     occupation numbers 
     1.0000   1.0000   1.0000   1.0000   1.0000   1.0000   1.0000   1.0000
     0.0000   0.0000   0.0000   0.0000

          k = 0.1252 0.5060 0.0943 (   635 PWs)   bands (ev):

    -7.7424  -7.5651  -4.8283  -4.6949  -0.2656  -0.1970   4.2434   5.1961
     9.2560   9.8820  16.1789  16.5347

     occupation numbers 
     1.0000   1.0000   1.0000   1.0000   1.0000   1.0000   1.0000   1.0000
     0.0000   0.0000   0.0000   0.0000

          k = 0.1252-0.3614 0.0943 (   638 PWs)   bands (ev):

    -9.8053  -9.5909  -1.8536  -1.7605   0.5006   0.5577   2.0070   3.3479
    12.2113  12.7499  15.6665  16.5518

     occupation numbers 
     1.0000   1.0000   1.0000   1.0000   1.0000   1.0000   1.0000   1.0000
     0.0000   0.0000   0.0000   0.0000

          k = 0.1252-0.0723 0.0943 (   616 PWs)   bands (ev):

   -11.9816 -11.7341  -0.5849   0.9312   2.6976   2.7387   3.3680   3.3983
    13.1447  15.6878  15.8137  17.1009

     occupation numbers 
     1.0000   1.0000   1.0000   1.0000   1.0000   1.0000   1.0000   1.0000
     0.0000   0.0000   0.0000   0.0000

          k = 0.3756 0.6506 0.0943 (   638 PWs)   bands (ev):

    -6.1529  -6.0652  -5.2147  -5.1807  -2.5178  -2.4340   5.9284   6.4684
     8.2313   8.3725  18.2360  18.3541

     occupation numbers 
     1.0000   1.0000   1.0000   1.0000   1.0000   1.0000   1.0023   0.9977
     0.0000   0.0000   0.0000   0.0000

          k = 0.3756-0.2169 0.0943 (   632 PWs)   bands (ev):

    -9.0981  -8.8948  -3.5332  -3.4069   1.0827   1.1293   2.7907   4.0222
    10.7213  11.4995  14.8545  15.1374

     occupation numbers 
     1.0000   1.0000   1.0000   1.0000   1.0000   1.0000   1.0000   1.0000
     0.0000   0.0000   0.0000   0.0000

     the Fermi energy is     6.7174 ev

!    total energy              =     -45.87981717 Ry
     estimated scf accuracy    <          1.8E-13 Ry
     smearing contrib. (-TS)   =       0.00043296 Ry
     internal energy E=F+TS    =     -45.88025013 Ry

     The total energy is F=E-TS. E is the sum of the following terms:
     one-electron contribution =      -9.30321642 Ry
     hartree contribution      =      12.83348816 Ry
     xc contribution           =     -14.41438792 Ry
     ewald contribution        =     -34.99613395 Ry

     convergence has been achieved in  11 iterations

     Forces acting on atoms (cartesian axes, Ry/au):

     atom    1 type  1   force =     0.00000000    0.00000000   -0.00000000
     atom    2 type  1   force =     0.00000000    0.00000000    0.00000000
     atom    3 type  1   force =     0.00000000    0.00000000   -0.00000000
     atom    4 type  1   force =     0.00000000    0.00000000    0.00000000
     The non-local contrib.  to forces
     atom    1 type  1   force =     0.00000000    0.00000000    0.00000000
     atom    2 type  1   force =     0.00000000   -0.00000000   -0.00000000
     atom    3 type  1   force =     0.00000000    0.00000000    0.00000000
     atom    4 type  1   force =    -0.00000000   -0.00000000    0.00000000
     The ionic contribution  to forces
     atom    1 type  1   force =     0.00000855   -0.00000494   -0.00000000
     atom    2 type  1   force =    -0.00000858    0.00000495   -0.00000000
     atom    3 type  1   force =    -0.00000855    0.00000494    0.00000000
     atom    4 type  1   force =     0.00000858   -0.00000495    0.00000000
     The local contribution  to forces
     atom    1 type  1   force =    -0.00000000    0.00000000    0.00000000
     atom    2 type  1   force =    -0.00000820    0.00000473   -0.00000000
     atom    3 type  1   force =     0.00000000   -0.00000000    0.00000000
     atom    4 type  1   force =     0.00000820   -0.00000473    0.00000000
     The core correction contribution to forces
     atom    1 type  1   force =     0.00000000    0.00000000    0.00000000
     atom    2 type  1   force =     0.00000000    0.00000000    0.00000000
     atom    3 type  1   force =     0.00000000    0.00000000    0.00000000
     atom    4 type  1   force =     0.00000000    0.00000000    0.00000000
     The Hubbard contrib.    to forces
     atom    1 type  1   force =     0.00000000    0.00000000    0.00000000
     atom    2 type  1   force =     0.00000000    0.00000000    0.00000000
     atom    3 type  1   force =     0.00000000    0.00000000    0.00000000
     atom    4 type  1   force =     0.00000000    0.00000000    0.00000000
     The SCF correction term to forces
     atom    1 type  1   force =     0.00000000   -0.00000000   -0.00000000
     atom    2 type  1   force =     0.00000000   -0.00000000    0.00000000
     atom    3 type  1   force =    -0.00000000    0.00000000    0.00000000
     atom    4 type  1   force =    -0.00000000    0.00000000    0.00000000

     Total force =     0.000000     Total SCF correction =     0.000000


     Computing stress (Cartesian axis) and pressure

          total   stress  (Ry/bohr**3)                   (kbar)     P=       18.27
   0.00007483  -0.00000000  -0.00000000           11.01       -0.00       -0.00
  -0.00000000   0.00007483  -0.00000000           -0.00       11.01       -0.00
   0.00000000   0.00000000   0.00022290            0.00        0.00       32.79

     kinetic stress (kbar)  10924.01     -0.00     -0.00
                               -0.00  10924.01      0.00
                               -0.00      0.00  12666.95

     local   stress (kbar) -17633.84      0.01     -0.00
                                0.01 -17633.82      0.00
                               -0.00      0.00  24865.19

     nonloc. stress (kbar)   -476.04      0.00      0.00
                                0.00   -476.04     -0.00
                                0.00     -0.00   -475.12

     hartree stress (kbar)   7064.99      0.00      0.00
                                0.00   7064.99     -0.00
                                0.00     -0.00  -5980.17

     exc-cor stress (kbar)  -2800.66      0.00      0.00
                                0.00  -2800.66     -0.00
                                0.00     -0.00  -3046.54

     corecor stress (kbar)      0.00      0.00      0.00
                                0.00      0.00      0.00
                                0.00      0.00      0.00

     ewald   stress (kbar)   2925.06     -0.03      0.00
                               -0.03   2925.03     -0.00
                                0.00     -0.00 -28074.11

     hubbard stress (kbar)      0.00      0.00      0.00
                                0.00      0.00      0.00
                                0.00      0.00      0.00

     DFT-D   stress (kbar)      0.00      0.00      0.00
                                0.00      0.00      0.00
                                0.00      0.00      0.00

     XDM     stress (kbar)      0.00      0.00      0.00
                                0.00      0.00      0.00
                                0.00      0.00      0.00

     dft-nl  stress (kbar)      7.50      0.00      0.00
                                0.00      7.50     -0.00
                                0.00     -0.00     76.58

     TS-vdW  stress (kbar)      0.00      0.00      0.00
                                0.00      0.00      0.00
                                0.00      0.00      0.00


     Energy error            =      6.9E-04
     Gradient error          =      7.1E-23
     Cell gradient error     =      2.2E-04


     number of scf cycles    =   3
     number of bfgs steps    =   2

     enthalpy old            =     -45.8791279686 Ry
     enthalpy new            =     -45.8798171683 Ry

     CASE: enthalpy_new < enthalpy_old

     new trust radius        =       0.0537703156 bohr
     new conv_thr            =            1.0E-11 Ry

     new unit-cell volume =    235.92396 a.u.^3 (    34.96032 Ang^3 )
     density =      2.28199 g/cm^3

CELL_PARAMETERS (alat=  4.66006462)
   0.998756872  -0.000000000   0.000000000
  -0.499378436   0.864948823  -0.000000000
   0.000000000  -0.000000000   2.698646708

ATOMIC_POSITIONS (crystal)
C             0.0000000000        1.0000000000        0.7500000000
C             0.6666670000        0.3333330000        0.7500000000
C             0.0000000000        1.0000000000        0.2500000000
C             0.3333330000        0.6666670000        0.2500000000



     Writing output data file ./tmp/graphite.save/
     NEW-OLD atomic charge density approx. for the potential


     -----------------------------------------------
     Non-local corr. energy    =       0.15426758 Ry
     -----------------------------------------------

     extrapolated charge   16.29010, renormalised to   16.00000

     total cpu time spent up to now is       18.0 secs

     Self-consistent Calculation

     iteration #  1     ecut=    30.00 Ry     beta= 0.30
     Davidson diagonalization with overlap
     ethr =  1.00E-06,  avg # of iterations =  8.5


     -----------------------------------------------
     Non-local corr. energy    =       0.15115435 Ry
     -----------------------------------------------


     total cpu time spent up to now is       18.1 secs

     total energy              =     -45.87754623 Ry
     estimated scf accuracy    <       0.00131781 Ry

     iteration #  2     ecut=    30.00 Ry     beta= 0.30
     Davidson diagonalization with overlap
     ethr =  8.24E-06,  avg # of iterations =  4.2


     -----------------------------------------------
     Non-local corr. energy    =       0.15147076 Ry
     -----------------------------------------------


     total cpu time spent up to now is       18.1 secs

     total energy              =     -45.88071511 Ry
     estimated scf accuracy    <       0.00057531 Ry

     iteration #  3     ecut=    30.00 Ry     beta= 0.30
     Davidson diagonalization with overlap
     ethr =  3.60E-06,  avg # of iterations =  1.7


     -----------------------------------------------
     Non-local corr. energy    =       0.15268535 Ry
     -----------------------------------------------


     total cpu time spent up to now is       18.2 secs

     total energy              =     -45.88050417 Ry
     estimated scf accuracy    <       0.00033299 Ry

     iteration #  4     ecut=    30.00 Ry     beta= 0.30
     Davidson diagonalization with overlap
     ethr =  2.08E-06,  avg # of iterations =  3.0


     -----------------------------------------------
     Non-local corr. energy    =       0.15248464 Ry
     -----------------------------------------------


     total cpu time spent up to now is       18.2 secs

     total energy              =     -45.88058246 Ry
     estimated scf accuracy    <       0.00005263 Ry

     iteration #  5     ecut=    30.00 Ry     beta= 0.30
     Davidson diagonalization with overlap
     ethr =  3.29E-07,  avg # of iterations =  1.0


     -----------------------------------------------
     Non-local corr. energy    =       0.15226219 Ry
     -----------------------------------------------


     total cpu time spent up to now is       18.3 secs

     total energy              =     -45.88057584 Ry
     estimated scf accuracy    <       0.00001298 Ry

     iteration #  6     ecut=    30.00 Ry     beta= 0.30
     Davidson diagonalization with overlap
     ethr =  8.11E-08,  avg # of iterations =  2.0


     -----------------------------------------------
     Non-local corr. energy    =       0.15230968 Ry
     -----------------------------------------------


     total cpu time spent up to now is       18.3 secs

     total energy              =     -45.88057842 Ry
     estimated scf accuracy    <       0.00000027 Ry

     iteration #  7     ecut=    30.00 Ry     beta= 0.30
     Davidson diagonalization with overlap
     ethr =  1.71E-09,  avg # of iterations =  2.0


     -----------------------------------------------
     Non-local corr. energy    =       0.15228554 Ry
     -----------------------------------------------


     total cpu time spent up to now is       18.4 secs

     total energy              =     -45.88057844 Ry
     estimated scf accuracy    <       0.00000015 Ry

     iteration #  8     ecut=    30.00 Ry     beta= 0.30
     Davidson diagonalization with overlap
     ethr =  9.39E-10,  avg # of iterations =  2.0


     -----------------------------------------------
     Non-local corr. energy    =       0.15228988 Ry
     -----------------------------------------------


     total cpu time spent up to now is       18.4 secs

     total energy              =     -45.88057848 Ry
     estimated scf accuracy    <          5.4E-09 Ry

     iteration #  9     ecut=    30.00 Ry     beta= 0.30
     Davidson diagonalization with overlap
     ethr =  3.36E-11,  avg # of iterations =  2.0


     -----------------------------------------------
     Non-local corr. energy    =       0.15228885 Ry
     -----------------------------------------------


     total cpu time spent up to now is       18.5 secs

     total energy              =     -45.88057848 Ry
     estimated scf accuracy    <          1.6E-11 Ry

     iteration # 10     ecut=    30.00 Ry     beta= 0.30
     Davidson diagonalization with overlap
     ethr =  1.00E-13,  avg # of iterations =  3.2


     -----------------------------------------------
     Non-local corr. energy    =       0.15228999 Ry
     -----------------------------------------------


     total cpu time spent up to now is       18.5 secs

     total energy              =     -45.88057848 Ry
     estimated scf accuracy    <          5.4E-10 Ry

     iteration # 11     ecut=    30.00 Ry     beta= 0.30
     Davidson diagonalization with overlap
     ethr =  1.00E-13,  avg # of iterations =  3.0


     -----------------------------------------------
     Non-local corr. energy    =       0.15228998 Ry
     -----------------------------------------------


     total cpu time spent up to now is       18.6 secs

     End of self-consistent calculation

          k = 0.1252 0.2168 0.0926 (   626 PWs)   bands (ev):

   -11.4354 -11.2282   0.1482   0.7116   0.7441   1.4963   1.7985   1.8211
    13.5887  15.1084  15.4021  16.2941

     occupation numbers 
     1.0000   1.0000   1.0000   1.0000   1.0000   1.0000   1.0000   1.0000
     0.0000   0.0000   0.0000   0.0000

          k = 0.1252 0.5058 0.0926 (   635 PWs)   bands (ev):

    -7.9362  -7.7817  -5.0257  -4.9099  -0.4691  -0.4104   4.0779   4.9506
     9.0647   9.6408  15.9752  16.2929

     occupation numbers 
     1.0000   1.0000   1.0000   1.0000   1.0000   1.0000   1.0000   1.0000
     0.0000   0.0000   0.0000   0.0000

          k = 0.1252-0.3613 0.0926 (   638 PWs)   bands (ev):

    -9.9950  -9.8074  -2.0564  -1.9761   0.2956   0.3445   1.8520   3.0828
    12.0237  12.5124  15.2816  16.3406

     occupation numbers 
     1.0000   1.0000   1.0000   1.0000   1.0000   1.0000   1.0000   1.0000
     0.0000   0.0000   0.0000   0.0000

          k = 0.1252-0.0723 0.0926 (   616 PWs)   bands (ev):

   -12.1676 -11.9504  -0.7342   0.6601   2.4880   2.5230   3.1577   3.1833
    12.7199  15.4713  15.5862  16.9777

     occupation numbers 
     1.0000   1.0000   1.0000   1.0000   1.0000   1.0000   1.0000   1.0000
     0.0000   0.0000   0.0000   0.0000

          k = 0.3755 0.6503 0.0926 (   638 PWs)   bands (ev):

    -6.3536  -6.2775  -5.4197  -5.3900  -2.7174  -2.6451   5.7546   6.2477
     8.0221   8.1412  18.0089  18.1163

     occupation numbers 
     1.0000   1.0000   1.0000   1.0000   1.0000   1.0000   1.0047   0.9953
     0.0000   0.0000   0.0000   0.0000

          k = 0.3755-0.2168 0.0926 (   632 PWs)   bands (ev):

    -9.2890  -9.1114  -3.7322  -3.6227   0.8764   0.9159   2.6327   3.7623
    10.5398  11.2510  14.6494  14.8959

     occupation numbers 
     1.0000   1.0000   1.0000   1.0000   1.0000   1.0000   1.0000   1.0000
     0.0000   0.0000   0.0000   0.0000

     the Fermi energy is     6.4950 ev

!    total energy              =     -45.88057848 Ry
     estimated scf accuracy    <          9.3E-13 Ry
     smearing contrib. (-TS)   =       0.00045581 Ry
     internal energy E=F+TS    =     -45.88103429 Ry

     The total energy is F=E-TS. E is the sum of the following terms:
     one-electron contribution =     -10.61939801 Ry
     hartree contribution      =      13.36507037 Ry
     xc contribution           =     -14.40721673 Ry
     ewald contribution        =     -34.21948992 Ry

     convergence has been achieved in  11 iterations

     Forces acting on atoms (cartesian axes, Ry/au):

     atom    1 type  1   force =     0.00000000    0.00000000   -0.00000000
     atom    2 type  1   force =     0.00000000    0.00000000    0.00000000
     atom    3 type  1   force =    -0.00000000   -0.00000000    0.00000000
     atom    4 type  1   force =     0.00000000    0.00000000    0.00000000
     The non-local contrib.  to forces
     atom    1 type  1   force =    -0.00000000    0.00000000    0.00000000
     atom    2 type  1   force =     0.00000000   -0.00000000   -0.00000000
     atom    3 type  1   force =     0.00000000   -0.00000000   -0.00000000
     atom    4 type  1   force =    -0.00000000    0.00000000    0.00000000
     The ionic contribution  to forces
     atom    1 type  1   force =     0.00000854   -0.00000493   -0.00000000
     atom    2 type  1   force =    -0.00000857    0.00000495   -0.00000000
     atom    3 type  1   force =    -0.00000854    0.00000493    0.00000000
     atom    4 type  1   force =     0.00000857   -0.00000495    0.00000000
     The local contribution  to forces
     atom    1 type  1   force =    -0.00000000    0.00000000   -0.00000000
     atom    2 type  1   force =    -0.00000820    0.00000474   -0.00000000
     atom    3 type  1   force =     0.00000000   -0.00000000    0.00000000
     atom    4 type  1   force =     0.00000820   -0.00000474    0.00000000
     The core correction contribution to forces
     atom    1 type  1   force =     0.00000000    0.00000000    0.00000000
     atom    2 type  1   force =     0.00000000    0.00000000    0.00000000
     atom    3 type  1   force =     0.00000000    0.00000000    0.00000000
     atom    4 type  1   force =     0.00000000    0.00000000    0.00000000
     The Hubbard contrib.    to forces
     atom    1 type  1   force =     0.00000000    0.00000000    0.00000000
     atom    2 type  1   force =     0.00000000    0.00000000    0.00000000
     atom    3 type  1   force =     0.00000000    0.00000000    0.00000000
     atom    4 type  1   force =     0.00000000    0.00000000    0.00000000
     The SCF correction term to forces
     atom    1 type  1   force =    -0.00000000    0.00000000    0.00000000
     atom    2 type  1   force =     0.00000000   -0.00000000    0.00000000
     atom    3 type  1   force =     0.00000000   -0.00000000    0.00000000
     atom    4 type  1   force =    -0.00000000    0.00000000    0.00000000

     Total force =     0.000000     Total SCF correction =     0.000000


     Computing stress (Cartesian axis) and pressure

          total   stress  (Ry/bohr**3)                   (kbar)     P=       11.51
   0.00004483  -0.00000000  -0.00000000            6.60       -0.00       -0.00
  -0.00000000   0.00004483   0.00000000           -0.00        6.60        0.00
  -0.00000000  -0.00000000   0.00014506           -0.00       -0.00       21.34

     kinetic stress (kbar)  10720.52     -0.00      0.00
                               -0.00  10720.52      0.00
                                0.00      0.00  12426.03

     local   stress (kbar) -18118.29      0.01     -0.00
                                0.01 -18118.28      0.00
                               -0.00      0.00  25204.61

     nonloc. stress (kbar)   -466.75      0.00     -0.00
                                0.00   -466.75     -0.00
                                0.00      0.00   -466.05

     hartree stress (kbar)   7267.10      0.00      0.00
                                0.00   7267.10     -0.00
                                0.00     -0.00  -6200.71

     exc-cor stress (kbar)  -2748.62      0.00     -0.00
                                0.00  -2748.62      0.00
                               -0.00      0.00  -2991.94

     corecor stress (kbar)      0.00      0.00      0.00
                                0.00      0.00      0.00
                                0.00      0.00      0.00

     ewald   stress (kbar)   3345.33     -0.02     -0.00
                               -0.02   3345.30      0.00
                               -0.00      0.00 -28027.42

     hubbard stress (kbar)      0.00      0.00      0.00
                                0.00      0.00      0.00
                                0.00      0.00      0.00

     DFT-D   stress (kbar)      0.00      0.00      0.00
                                0.00      0.00      0.00
                                0.00      0.00      0.00

     XDM     stress (kbar)      0.00      0.00      0.00
                                0.00      0.00      0.00
                                0.00      0.00      0.00

     dft-nl  stress (kbar)      7.31      0.00      0.00
                                0.00      7.31      0.00
                                0.00      0.00     76.81

     TS-vdW  stress (kbar)      0.00      0.00      0.00
                                0.00      0.00      0.00
                                0.00      0.00      0.00


     Energy error            =      7.6E-04
     Gradient error          =      7.1E-23
     Cell gradient error     =      1.5E-04


     number of scf cycles    =   4
     number of bfgs steps    =   3

     enthalpy old            =     -45.8798171683 Ry
     enthalpy new            =     -45.8805784795 Ry

     CASE: enthalpy_new < enthalpy_old

     new trust radius        =       0.0799839038 bohr
     new conv_thr            =            1.0E-11 Ry

     new unit-cell volume =    242.31358 a.u.^3 (    35.90717 Ang^3 )
     density =      2.22181 g/cm^3

CELL_PARAMETERS (alat=  4.66006462)
   0.999266159  -0.000000000   0.000000000
  -0.499633079   0.865389878  -0.000000000
   0.000000000  -0.000000000   2.768910667

ATOMIC_POSITIONS (crystal)
C             0.0000000000        1.0000000000        0.7500000000
C             0.6666670000        0.3333330000        0.7500000000
C             0.0000000000        1.0000000000        0.2500000000
C             0.3333330000        0.6666670000        0.2500000000



     Writing output data file ./tmp/graphite.save/
     NEW-OLD atomic charge density approx. for the potential


     -----------------------------------------------
     Non-local corr. energy    =       0.15779456 Ry
     -----------------------------------------------

     extrapolated charge   16.42190, renormalised to   16.00000

     total cpu time spent up to now is       18.7 secs

     Self-consistent Calculation

     iteration #  1     ecut=    30.00 Ry     beta= 0.30
     Davidson diagonalization with overlap
     ethr =  1.00E-06,  avg # of iterations =  7.8


     -----------------------------------------------
     Non-local corr. energy    =       0.15316446 Ry
     -----------------------------------------------


     total cpu time spent up to now is       18.8 secs

     total energy              =     -45.87419281 Ry
     estimated scf accuracy    <       0.00302421 Ry

     iteration #  2     ecut=    30.00 Ry     beta= 0.30
     Davidson diagonalization with overlap
     ethr =  1.89E-05,  avg # of iterations =  5.0


     -----------------------------------------------
     Non-local corr. energy    =       0.15364586 Ry
     -----------------------------------------------


     total cpu time spent up to now is       18.8 secs

     total energy              =     -45.88147206 Ry
     estimated scf accuracy    <       0.00134657 Ry

     iteration #  3     ecut=    30.00 Ry     beta= 0.30
     Davidson diagonalization with overlap
     ethr =  8.42E-06,  avg # of iterations =  1.5


     -----------------------------------------------
     Non-local corr. energy    =       0.15550583 Ry
     -----------------------------------------------


     total cpu time spent up to now is       18.9 secs

     total energy              =     -45.88097259 Ry
     estimated scf accuracy    <       0.00077548 Ry

     iteration #  4     ecut=    30.00 Ry     beta= 0.30
     Davidson diagonalization with overlap
     ethr =  4.85E-06,  avg # of iterations =  2.7


     -----------------------------------------------
     Non-local corr. energy    =       0.15518725 Ry
     -----------------------------------------------


     total cpu time spent up to now is       18.9 secs

     total energy              =     -45.88115789 Ry
     estimated scf accuracy    <       0.00012858 Ry

     iteration #  5     ecut=    30.00 Ry     beta= 0.30
     Davidson diagonalization with overlap
     ethr =  8.04E-07,  avg # of iterations =  1.0


     -----------------------------------------------
     Non-local corr. energy    =       0.15484740 Ry
     -----------------------------------------------


     total cpu time spent up to now is       19.0 secs

     total energy              =     -45.88114312 Ry
     estimated scf accuracy    <       0.00002974 Ry

     iteration #  6     ecut=    30.00 Ry     beta= 0.30
     Davidson diagonalization with overlap
     ethr =  1.86E-07,  avg # of iterations =  2.0


     -----------------------------------------------
     Non-local corr. energy    =       0.15492473 Ry
     -----------------------------------------------


     total cpu time spent up to now is       19.0 secs

     total energy              =     -45.88114922 Ry
     estimated scf accuracy    <       0.00000087 Ry

     iteration #  7     ecut=    30.00 Ry     beta= 0.30
     Davidson diagonalization with overlap
     ethr =  5.41E-09,  avg # of iterations =  2.0


     -----------------------------------------------
     Non-local corr. energy    =       0.15488660 Ry
     -----------------------------------------------


     total cpu time spent up to now is       19.0 secs

     total energy              =     -45.88114935 Ry
     estimated scf accuracy    <       0.00000033 Ry

     iteration #  8     ecut=    30.00 Ry     beta= 0.30
     Davidson diagonalization with overlap
     ethr =  2.05E-09,  avg # of iterations =  2.0


     -----------------------------------------------
     Non-local corr. energy    =       0.15489835 Ry
     -----------------------------------------------


     total cpu time spent up to now is       19.1 secs

     total energy              =     -45.88114942 Ry
[...]
         4           C   tau(   4) = (  0.3333330  0.6666670  0.2500000  )

     number of k points=     6  Marzari-Vanderbilt smearing, width (Ry)=  0.0200
                       cart. coord. in units 2pi/alat
        k(    1) = (   0.1250807   0.2166462   0.0893353), wk =   0.2500000
        k(    2) = (   0.1250807   0.5055078   0.0893353), wk =   0.5000000
        k(    3) = (   0.1250807  -0.3610770   0.0893353), wk =   0.5000000
        k(    4) = (   0.1250807  -0.0722154   0.0893353), wk =   0.2500000
        k(    5) = (   0.3752422   0.6499386   0.0893353), wk =   0.2500000
        k(    6) = (   0.3752422  -0.2166462   0.0893353), wk =   0.2500000

                       cryst. coord.
        k(    1) = (   0.1250000   0.1250000   0.2500000), wk =   0.2500000
        k(    2) = (   0.1250000   0.3750000   0.2500000), wk =   0.5000000
        k(    3) = (   0.1250000  -0.3750000   0.2500000), wk =   0.5000000
        k(    4) = (   0.1250000  -0.1250000   0.2500000), wk =   0.2500000
        k(    5) = (   0.3750000   0.3750000   0.2500000), wk =   0.2500000
        k(    6) = (   0.3750000  -0.3750000   0.2500000), wk =   0.2500000

     Dense  grid:    15413 G-vectors     FFT dimensions: (  24,  24,  72)

     Smooth grid:     5415 G-vectors     FFT dimensions: (  18,  18,  48)

     Dynamical RAM for                 wfc:       0.02 MB

     Dynamical RAM for     wfc (w. buffer):       0.11 MB

     Dynamical RAM for           str. fact:       0.03 MB

     Dynamical RAM for           local pot:       0.01 MB

     Dynamical RAM for          nlocal pot:       0.04 MB

     Dynamical RAM for                qrad:       0.71 MB

     Dynamical RAM for          rho,v,vnew:       0.21 MB

     Dynamical RAM for               rhoin:       0.07 MB

     Dynamical RAM for            rho*nmix:       0.47 MB

     Dynamical RAM for           G-vectors:       0.12 MB

     Dynamical RAM for          h,s,v(r/c):       0.03 MB

     Dynamical RAM for          <psi|beta>:       0.01 MB

     Dynamical RAM for                 psi:       0.03 MB

     Dynamical RAM for                hpsi:       0.03 MB

     Dynamical RAM for                spsi:       0.03 MB

     Dynamical RAM for      wfcinit/wfcrot:       0.05 MB

     Dynamical RAM for           addusdens:       1.38 MB

     Dynamical RAM for          addusforce:       1.58 MB

     Dynamical RAM for         addusstress:       1.47 MB

     Estimated static dynamical RAM per process >       2.02 MB

     Estimated max dynamical RAM per process >       3.60 MB

     Estimated total dynamical RAM >      28.79 MB

     Initial potential from superposition of free atoms

     starting charge   15.99979, renormalised to   16.00000


     -----------------------------------------------
     Non-local corr. energy    =       0.12373623 Ry
     -----------------------------------------------

     Starting wfcs are   16 randomized atomic wfcs

     total cpu time spent up to now is       20.6 secs

     Self-consistent Calculation

     iteration #  1     ecut=    30.00 Ry     beta= 0.30
     Davidson diagonalization with overlap
     c_bands:  1 eigenvalues not converged
     c_bands:  1 eigenvalues not converged
     ethr =  1.00E-06,  avg # of iterations = 14.7


     -----------------------------------------------
     Non-local corr. energy    =       0.13678105 Ry
     -----------------------------------------------


     total cpu time spent up to now is       20.7 secs

     total energy              =     -45.92371830 Ry
     estimated scf accuracy    <       0.43270529 Ry

     iteration #  2     ecut=    30.00 Ry     beta= 0.30
     Davidson diagonalization with overlap
     ethr =  2.70E-03,  avg # of iterations =  1.0


     -----------------------------------------------
     Non-local corr. energy    =       0.15648142 Ry
     -----------------------------------------------


     total cpu time spent up to now is       20.7 secs

     total energy              =     -45.85814958 Ry
     estimated scf accuracy    <       0.14726554 Ry

     iteration #  3     ecut=    30.00 Ry     beta= 0.30
     Davidson diagonalization with overlap
     ethr =  9.20E-04,  avg # of iterations =  3.2


     -----------------------------------------------
     Non-local corr. energy    =       0.15448323 Ry
     -----------------------------------------------


     total cpu time spent up to now is       20.8 secs

     total energy              =     -45.88143104 Ry
     estimated scf accuracy    <       0.00268186 Ry

     iteration #  4     ecut=    30.00 Ry     beta= 0.30
     Davidson diagonalization with overlap
     ethr =  1.68E-05,  avg # of iterations =  5.7


     -----------------------------------------------
     Non-local corr. energy    =       0.15579750 Ry
     -----------------------------------------------


     total cpu time spent up to now is       20.8 secs

     total energy              =     -45.88159718 Ry
     estimated scf accuracy    <       0.00062211 Ry

     iteration #  5     ecut=    30.00 Ry     beta= 0.30
     Davidson diagonalization with overlap
     ethr =  3.89E-06,  avg # of iterations =  4.2


     -----------------------------------------------
     Non-local corr. energy    =       0.15595540 Ry
     -----------------------------------------------


     total cpu time spent up to now is       20.9 secs

     total energy              =     -45.88168112 Ry
     estimated scf accuracy    <       0.00000332 Ry

     iteration #  6     ecut=    30.00 Ry     beta= 0.30
     Davidson diagonalization with overlap
     ethr =  2.07E-08,  avg # of iterations =  2.5


     -----------------------------------------------
     Non-local corr. energy    =       0.15589660 Ry
     -----------------------------------------------


     total cpu time spent up to now is       20.9 secs

     total energy              =     -45.88168478 Ry
     estimated scf accuracy    <       0.00000179 Ry

     iteration #  7     ecut=    30.00 Ry     beta= 0.30
     Davidson diagonalization with overlap
     ethr =  1.12E-08,  avg # of iterations =  2.0


     -----------------------------------------------
     Non-local corr. energy    =       0.15593203 Ry
     -----------------------------------------------


     total cpu time spent up to now is       21.0 secs

     total energy              =     -45.88168546 Ry
     estimated scf accuracy    <       0.00000043 Ry

     iteration #  8     ecut=    30.00 Ry     beta= 0.30
     Davidson diagonalization with overlap
     ethr =  2.69E-09,  avg # of iterations =  2.0


     -----------------------------------------------
     Non-local corr. energy    =       0.15593035 Ry
     -----------------------------------------------


     total cpu time spent up to now is       21.0 secs

     total energy              =     -45.88168578 Ry
     estimated scf accuracy    <          5.4E-09 Ry

     iteration #  9     ecut=    30.00 Ry     beta= 0.30
     Davidson diagonalization with overlap
     ethr =  3.38E-11,  avg # of iterations =  2.0


     -----------------------------------------------
     Non-local corr. energy    =       0.15592627 Ry
     -----------------------------------------------


     total cpu time spent up to now is       21.1 secs

     total energy              =     -45.88168590 Ry
     estimated scf accuracy    <          3.2E-09 Ry

     iteration # 10     ecut=    30.00 Ry     beta= 0.30
     Davidson diagonalization with overlap
     ethr =  2.00E-11,  avg # of iterations =  2.0


     -----------------------------------------------
     Non-local corr. energy    =       0.15592655 Ry
     -----------------------------------------------


     total cpu time spent up to now is       21.1 secs

     total energy              =     -45.88168596 Ry
     estimated scf accuracy    <          5.1E-10 Ry

     iteration # 11     ecut=    30.00 Ry     beta= 0.30
     Davidson diagonalization with overlap
     ethr =  3.16E-12,  avg # of iterations =  2.0


     -----------------------------------------------
     Non-local corr. energy    =       0.15592615 Ry
     -----------------------------------------------


     total cpu time spent up to now is       21.2 secs

     total energy              =     -45.88168600 Ry
     estimated scf accuracy    <          2.1E-11 Ry

     iteration # 12     ecut=    30.00 Ry     beta= 0.30
     Davidson diagonalization with overlap
     ethr =  1.31E-13,  avg # of iterations =  2.0


     -----------------------------------------------
     Non-local corr. energy    =       0.15592586 Ry
     -----------------------------------------------


     total cpu time spent up to now is       21.2 secs

     End of self-consistent calculation

          k = 0.1251 0.2166 0.0893 (   674 PWs)   bands (ev):

   -11.8171 -11.6608  -0.1613   0.2938   0.3170   0.9646   1.3802   1.3962
    12.7834  14.7152  14.9463  15.8316

     occupation numbers 
     1.0000   1.0000   1.0000   1.0000   1.0000   1.0000   1.0000   1.0000
     0.0000   0.0000   0.0000   0.0000

          k = 0.1251 0.5055 0.0893 (   686 PWs)   bands (ev):

    -8.3290  -8.2138  -5.4248  -5.3392  -0.8788  -0.8365   3.7404   4.4633
     8.6828   9.1641  15.5703  15.8194

     occupation numbers 
     1.0000   1.0000   1.0000   1.0000   1.0000   1.0000   1.0000   1.0000
     0.0000   0.0000   0.0000   0.0000

          k = 0.1251-0.3611 0.0893 (   683 PWs)   bands (ev):

   -10.3807 -10.2398  -2.4644  -2.4058  -0.1164  -0.0814   1.5351   2.5599
    11.6470  12.0429  14.5254  15.9225

     occupation numbers 
     1.0000   1.0000   1.0000   1.0000   1.0000   1.0000   1.0000   1.0000
     0.0000   0.0000   0.0000   0.0000

          k = 0.1251-0.0722 0.0893 (   661 PWs)   bands (ev):

   -12.5472 -12.3831  -1.0411   0.1251   2.0688   2.0936   2.7371   2.7550
    11.8954  15.0323  15.1379  15.8048

     occupation numbers 
     1.0000   1.0000   1.0000   1.0000   1.0000   1.0000   1.0000   1.0000
     0.0000   0.0000   0.0000   0.0000

          k = 0.3752 0.6499 0.0893 (   685 PWs)   bands (ev):

    -6.7583  -6.7021  -5.8313  -5.8091  -3.1206  -3.0678   5.4004   5.8049
     7.6050   7.6870  17.5636  17.6422

     occupation numbers 
     1.0000   1.0000   1.0000   1.0000   1.0000   1.0000   1.0159   0.9841
     0.0000   0.0000   0.0000   0.0000

          k = 0.3752-0.2166 0.0893 (   678 PWs)   bands (ev):

    -9.6770  -9.5439  -4.1337  -4.0532   0.4621   0.4898   2.3097   3.2488
    10.1749  10.7609  14.2403  14.4225

     occupation numbers 
     1.0000   1.0000   1.0000   1.0000   1.0000   1.0000   1.0000   1.0000
     0.0000   0.0000   0.0000   0.0000

     the Fermi energy is     6.0446 ev

!    total energy              =     -45.88168602 Ry
     estimated scf accuracy    <          9.3E-12 Ry
     smearing contrib. (-TS)   =       0.00054645 Ry
     internal energy E=F+TS    =     -45.88223248 Ry

     The total energy is F=E-TS. E is the sum of the following terms:
     one-electron contribution =     -13.44909067 Ry
     hartree contribution      =      14.52783801 Ry
     xc contribution           =     -14.39525999 Ry
     ewald contribution        =     -32.56571983 Ry

     convergence has been achieved in  12 iterations

     Forces acting on atoms (cartesian axes, Ry/au):

     atom    1 type  1   force =     0.00000000    0.00000000    0.00000000
     atom    2 type  1   force =     0.00000000    0.00000000    0.00000000
     atom    3 type  1   force =     0.00000000    0.00000000    0.00000000
     atom    4 type  1   force =     0.00000000    0.00000000    0.00000000
     The non-local contrib.  to forces
     atom    1 type  1   force =     0.00000000    0.00000000    0.00000000
     atom    2 type  1   force =     0.00000000    0.00000000    0.00000000
     atom    3 type  1   force =    -0.00000000   -0.00000000   -0.00000000
     atom    4 type  1   force =    -0.00000000    0.00000000    0.00000000
     The ionic contribution  to forces
     atom    1 type  1   force =     0.00000853   -0.00000493   -0.00000000
     atom    2 type  1   force =    -0.00000855    0.00000494   -0.00000000
     atom    3 type  1   force =    -0.00000853    0.00000493    0.00000000
     atom    4 type  1   force =     0.00000855   -0.00000494    0.00000000
     The local contribution  to forces
     atom    1 type  1   force =    -0.00000000    0.00000000   -0.00000000
     atom    2 type  1   force =    -0.00000821    0.00000474   -0.00000000
     atom    3 type  1   force =    -0.00000000   -0.00000000    0.00000000
     atom    4 type  1   force =     0.00000821   -0.00000474    0.00000000
     The core correction contribution to forces
     atom    1 type  1   force =     0.00000000    0.00000000    0.00000000
     atom    2 type  1   force =     0.00000000    0.00000000    0.00000000
     atom    3 type  1   force =     0.00000000    0.00000000    0.00000000
     atom    4 type  1   force =     0.00000000    0.00000000    0.00000000
     The Hubbard contrib.    to forces
     atom    1 type  1   force =     0.00000000    0.00000000    0.00000000
     atom    2 type  1   force =     0.00000000    0.00000000    0.00000000
     atom    3 type  1   force =     0.00000000    0.00000000    0.00000000
     atom    4 type  1   force =     0.00000000    0.00000000    0.00000000
     The SCF correction term to forces
     atom    1 type  1   force =    -0.00000000    0.00000000    0.00000000
     atom    2 type  1   force =     0.00000000   -0.00000000    0.00000000
     atom    3 type  1   force =     0.00000000   -0.00000000    0.00000000
     atom    4 type  1   force =    -0.00000000    0.00000000    0.00000000

     Total force =     0.000000     Total SCF correction =     0.000000


     Computing stress (Cartesian axis) and pressure

          total   stress  (Ry/bohr**3)                   (kbar)     P=        3.47
   0.00000818  -0.00000000  -0.00000000            1.20       -0.00       -0.00
  -0.00000000   0.00000818   0.00000000           -0.00        1.20        0.00
  -0.00000000   0.00000000   0.00005437           -0.00        0.00        8.00

     kinetic stress (kbar)  10316.71     -0.00      0.00
                               -0.00  10316.71      0.00
                                0.00      0.00  11948.93

     local   stress (kbar) -19124.12      0.01      0.00
                                0.01 -19124.11      0.00
                                0.00      0.00  25933.41

     nonloc. stress (kbar)   -447.83      0.00      0.00
                                0.00   -447.83     -0.00
                                0.00     -0.00   -445.08

     hartree stress (kbar)   7695.91     -0.00      0.00
                               -0.00   7695.91     -0.00
                                0.00     -0.00  -6666.80

     exc-cor stress (kbar)  -2645.53      0.00     -0.00
                                0.00  -2645.53     -0.00
                               -0.00     -0.00  -2883.27

     corecor stress (kbar)      0.00      0.00      0.00
                                0.00      0.00      0.00
                                0.00      0.00      0.00

     ewald   stress (kbar)   4199.13     -0.02      0.00
                               -0.02   4199.10     -0.00
                                0.00     -0.00 -27956.30

     hubbard stress (kbar)      0.00      0.00      0.00
                                0.00      0.00      0.00
                                0.00      0.00      0.00

     DFT-D   stress (kbar)      0.00      0.00      0.00
                                0.00      0.00      0.00
                                0.00      0.00      0.00

     XDM     stress (kbar)      0.00      0.00      0.00
                                0.00      0.00      0.00
                                0.00      0.00      0.00

     dft-nl  stress (kbar)      6.94     -0.00      0.00
                               -0.00      6.94      0.00
                                0.00      0.00     77.12

     TS-vdW  stress (kbar)      0.00      0.00      0.00
                                0.00      0.00      0.00
                                0.00      0.00      0.00



     Writing output data file ./tmp/graphite.save/
 
     init_run     :     16.31s CPU     16.35s WALL (       2 calls)
     electrons    :      3.58s CPU      4.12s WALL (       8 calls)
     update_pot   :      0.20s CPU      0.21s WALL (       6 calls)
     forces       :      0.07s CPU      0.09s WALL (       8 calls)
     stress       :      0.41s CPU      0.43s WALL (       8 calls)

     Called by init_run:
     wfcinit      :      0.02s CPU      0.03s WALL (       2 calls)
     wfcinit:atom :      0.00s CPU      0.00s WALL (      12 calls)
     wfcinit:wfcr :      0.02s CPU      0.03s WALL (      12 calls)
     potinit      :     16.24s CPU     16.26s WALL (       2 calls)
     hinit0       :      0.04s CPU      0.04s WALL (       2 calls)

     Called by electrons:
     c_bands      :      1.93s CPU      2.23s WALL (      82 calls)
     sum_band     :      0.40s CPU      0.46s WALL (      82 calls)
     v_of_rho     :     17.42s CPU     17.58s WALL (      89 calls)
     v_h          :      0.01s CPU      0.01s WALL (      89 calls)
     v_xc         :     17.41s CPU     17.57s WALL (      89 calls)
     newd         :      0.10s CPU      0.13s WALL (      89 calls)
     mix_rho      :      0.03s CPU      0.03s WALL (      82 calls)
     vdW_kernel   :     16.20s CPU     16.21s WALL (       1 calls)

     Called by c_bands:
     init_us_2    :      0.02s CPU      0.02s WALL (    1092 calls)
     cegterg      :      1.86s CPU      2.16s WALL (     492 calls)

     Called by sum_band:
     sum_band:wei :      0.00s CPU      0.01s WALL (      82 calls)
     sum_band:loo :      0.29s CPU      0.33s WALL (      82 calls)
     sum_band:buf :      0.00s CPU      0.00s WALL (     492 calls)
     sum_band:ini :      0.01s CPU      0.01s WALL (     492 calls)
     sum_band:cal :      0.02s CPU      0.02s WALL (     492 calls)
     sum_band:bec :      0.00s CPU      0.00s WALL (     492 calls)
     addusdens    :      0.06s CPU      0.07s WALL (      82 calls)
     addusd:skk   :      0.00s CPU      0.00s WALL (      82 calls)
     addusd:dgemm :      0.02s CPU      0.02s WALL (      82 calls)
     addusd:qvan2 :      0.03s CPU      0.04s WALL (      82 calls)

     Called by *egterg:
     cdiaghg      :      0.24s CPU      0.27s WALL (    1798 calls)
     cegterg:over :      0.06s CPU      0.06s WALL (    1348 calls)
     cegterg:upda :      0.01s CPU      0.01s WALL (    1348 calls)
     cegterg:last :      0.02s CPU      0.02s WALL (    1025 calls)
     h_psi        :      1.47s CPU      1.72s WALL (    1852 calls)
     s_psi        :      0.02s CPU      0.02s WALL (    1852 calls)
     g_psi        :      0.01s CPU      0.01s WALL (    1348 calls)

     Called by h_psi:
     h_psi:calbec :      0.06s CPU      0.07s WALL (    1852 calls)
     vloc_psi     :      1.38s CPU      1.62s WALL (    1852 calls)
     add_vuspsi   :      0.02s CPU      0.02s WALL (    1852 calls)

     General routines
     calbec       :      0.08s CPU      0.09s WALL (    2584 calls)
     fft          :      0.64s CPU      0.70s WALL (    6014 calls)
     ffts         :      0.01s CPU      0.01s WALL (     171 calls)
     fftw         :      1.55s CPU      1.81s WALL (   38454 calls)
     interpolate  :      0.01s CPU      0.02s WALL (      89 calls)
 
     Parallel routines
     fft_scatt_xy :      0.15s CPU      0.16s WALL (   44639 calls)
     fft_scatt_yz :      1.09s CPU      1.25s WALL (   44639 calls)
 
     PWSCF        :     20.65s CPU     21.32s WALL

 
   This run was terminated on:  17:41:32  16Apr2021            

=------------------------------------------------------------------------------=
   JOB DONE.
=------------------------------------------------------------------------------=
