
     Program PWSCF v.6.7MaX starts on 16Apr2021 at 17:47: 0 

     This program is part of the open-source Quantum ESPRESSO suite
     for quantum simulation of materials; please cite
         "P. Giannozzi et al., J. Phys.:Condens. Matter 21 395502 (2009);
         "P. Giannozzi et al., J. Phys.:Condens. Matter 29 465901 (2017);
          URL http://www.quantum-espresso.org", 
     in publications or presentations arising from this work. More details at
     http://www.quantum-espresso.org/quote

     Parallel version (MPI), running on     8 processors

     MPI processes distributed on     1 nodes
     R & G space division:  proc/nbgrp/npool/nimage =       8
     Waiting for input...
     Reading input from standard input

     Current dimensions of program PWSCF are:
     Max number of different atomic species (ntypx) = 10
     Max number of k-points (npk) =  40000
     Max angular momentum in pseudopotentials (lmaxx) =  3
     file C.pbe-rrkjus.UPF: wavefunction(s)  2S 2P renormalized

     -------------------------------------------------
     Parameters for Dispersion (Grimme-D2) Correction:
     -------------------------------------------------
       atom      VdW radius       C_6     

        C          2.744         60.710

     Subspace diagonalization in iterative solution of the eigenvalue problem:
     a serial algorithm will be used

 
     Parallelization info
     --------------------
     sticks:   dense  smooth     PW     G-vecs:    dense   smooth      PW
     Min          45      22      7                 1787      630     127
     Max          46      24      8                 1796      634     134
     Sum         361     187     61                14339     5053    1045
 


     bravais-lattice index     =            4
     lattice parameter (alat)  =       4.6601  a.u.
     unit-cell volume          =     227.8448 (a.u.)^3
     number of atoms/cell      =            4
     number of atomic types    =            1
     number of electrons       =        16.00
     number of Kohn-Sham states=           12
     kinetic-energy cutoff     =      30.0000  Ry
     charge density cutoff     =     240.0000  Ry
     scf convergence threshold =      1.0E-09
     mixing beta               =       0.3000
     number of iterations used =            8  plain     mixing
     energy convergence thresh.=      1.0E-05
     force convergence thresh. =      1.0E-04
     press convergence thresh. =      5.0E-01
     Exchange-correlation=  SLA  PW   PBE  PBE
                           (   1   4   3   4   0   0   0)
     nstep                     =           50


     celldm(1)=   4.660065  celldm(2)=   0.000000  celldm(3)=   2.599757
     celldm(4)=   0.000000  celldm(5)=   0.000000  celldm(6)=   0.000000

     crystal axes: (cart. coord. in units of alat)
               a(1) = (   1.000000   0.000000   0.000000 )  
               a(2) = (  -0.500000   0.866025   0.000000 )  
               a(3) = (   0.000000   0.000000   2.599757 )  

     reciprocal axes: (cart. coord. in units 2 pi/alat)
               b(1) = (  1.000000  0.577350  0.000000 )  
               b(2) = (  0.000000  1.154701  0.000000 )  
               b(3) = (  0.000000  0.000000  0.384651 )  


     PseudoPot. # 1 for C  read from file:
     ../../pseudo/C.pbe-rrkjus.UPF
     MD5 check sum: 00fb224312de0c5b6853bd333518df6f
     Pseudo is Ultrasoft, Zval =  4.0
     Generated by new atomic code, or converted to UPF format
     Using radial grid of  627 points,  4 beta functions with: 
                l(1) =   0
                l(2) =   0
                l(3) =   1
                l(4) =   1
     Q(r) pseudized with 0 coefficients 


     atomic species   valence    mass     pseudopotential
        C              4.00    12.01100     C ( 1.00)

     24 Sym. Ops., with inversion, found (12 have fractional translation)


                                    s                        frac. trans.

      isym =  1     identity                                     

 cryst.   s( 1) = (     1          0          0      )
                  (     0          1          0      )
                  (     0          0          1      )

 cart.    s( 1) = (  1.0000000  0.0000000  0.0000000 )
                  (  0.0000000  1.0000000  0.0000000 )
                  (  0.0000000  0.0000000  1.0000000 )


      isym =  2     180 deg rotation - cart. axis [0,0,1]        

 cryst.   s( 2) = (    -1          0          0      )    f =(  0.0000000 )
                  (     0         -1          0      )       (  0.0000000 )
                  (     0          0          1      )       (  0.5000000 )

 cart.    s( 2) = ( -1.0000000  0.0000000  0.0000000 )    f =(  0.0000000 )
                  (  0.0000000 -1.0000000  0.0000000 )       (  0.0000000 )
                  (  0.0000000  0.0000000  1.0000000 )       (  1.2998783 )


      isym =  3     180 deg rotation - cart. axis [0,1,0]        

 cryst.   s( 3) = (    -1          0          0      )    f =(  0.0000000 )
                  (     1          1          0      )       (  0.0000000 )
                  (     0          0         -1      )       (  0.5000000 )

 cart.    s( 3) = ( -1.0000000  0.0000000  0.0000000 )    f =(  0.0000000 )
                  (  0.0000000  1.0000000  0.0000000 )       (  0.0000000 )
                  (  0.0000000  0.0000000 -1.0000000 )       (  1.2998783 )


      isym =  4     180 deg rotation - cart. axis [1,0,0]        

 cryst.   s( 4) = (     1          0          0      )
                  (    -1         -1          0      )
                  (     0          0         -1      )

 cart.    s( 4) = (  1.0000000  0.0000000  0.0000000 )
                  (  0.0000000 -1.0000000  0.0000000 )
                  (  0.0000000  0.0000000 -1.0000000 )


      isym =  5      60 deg rotation - cryst. axis [0,0,1]       

 cryst.   s( 5) = (     1          1          0      )    f =(  0.0000000 )
                  (    -1          0          0      )       (  0.0000000 )
                  (     0          0          1      )       (  0.5000000 )

 cart.    s( 5) = (  0.5000000 -0.8660254  0.0000000 )    f =(  0.0000000 )
                  (  0.8660254  0.5000000  0.0000000 )       (  0.0000000 )
                  (  0.0000000  0.0000000  1.0000000 )       (  1.2998783 )


      isym =  6      60 deg rotation - cryst. axis [0,0,-1]      

 cryst.   s( 6) = (     0         -1          0      )    f =(  0.0000000 )
                  (     1          1          0      )       (  0.0000000 )
                  (     0          0          1      )       (  0.5000000 )

 cart.    s( 6) = (  0.5000000  0.8660254  0.0000000 )    f =(  0.0000000 )
                  ( -0.8660254  0.5000000  0.0000000 )       (  0.0000000 )
                  (  0.0000000  0.0000000  1.0000000 )       (  1.2998783 )


      isym =  7     120 deg rotation - cryst. axis [0,0,1]       

 cryst.   s( 7) = (     0          1          0      )
                  (    -1         -1          0      )
                  (     0          0          1      )

 cart.    s( 7) = ( -0.5000000 -0.8660254  0.0000000 )
                  (  0.8660254 -0.5000000  0.0000000 )
                  (  0.0000000  0.0000000  1.0000000 )


      isym =  8     120 deg rotation - cryst. axis [0,0,-1]      

 cryst.   s( 8) = (    -1         -1          0      )
                  (     1          0          0      )
                  (     0          0          1      )

 cart.    s( 8) = ( -0.5000000  0.8660254  0.0000000 )
                  ( -0.8660254 -0.5000000  0.0000000 )
                  (  0.0000000  0.0000000  1.0000000 )


      isym =  9     180 deg rotation - cryst. axis [1,-1,0]      

 cryst.   s( 9) = (     0         -1          0      )    f =(  0.0000000 )
                  (    -1          0          0      )       (  0.0000000 )
                  (     0          0         -1      )       (  0.5000000 )

 cart.    s( 9) = (  0.5000000 -0.8660254  0.0000000 )    f =(  0.0000000 )
                  ( -0.8660254 -0.5000000  0.0000000 )       (  0.0000000 )
                  (  0.0000000  0.0000000 -1.0000000 )       (  1.2998783 )


      isym = 10     180 deg rotation - cryst. axis [2,1,0]       

 cryst.   s(10) = (     1          1          0      )    f =(  0.0000000 )
                  (     0         -1          0      )       (  0.0000000 )
                  (     0          0         -1      )       (  0.5000000 )

 cart.    s(10) = (  0.5000000  0.8660254  0.0000000 )    f =(  0.0000000 )
                  (  0.8660254 -0.5000000  0.0000000 )       (  0.0000000 )
                  (  0.0000000  0.0000000 -1.0000000 )       (  1.2998783 )


      isym = 11     180 deg rotation - cryst. axis [0,1,0]       

 cryst.   s(11) = (    -1         -1          0      )
                  (     0          1          0      )
                  (     0          0         -1      )

 cart.    s(11) = ( -0.5000000 -0.8660254  0.0000000 )
                  ( -0.8660254  0.5000000  0.0000000 )
                  (  0.0000000  0.0000000 -1.0000000 )


      isym = 12     180 deg rotation - cryst. axis [1,1,0]       

 cryst.   s(12) = (     0          1          0      )
                  (     1          0          0      )
                  (     0          0         -1      )

 cart.    s(12) = ( -0.5000000  0.8660254  0.0000000 )
                  (  0.8660254  0.5000000  0.0000000 )
                  (  0.0000000  0.0000000 -1.0000000 )


      isym = 13     inversion                                    

 cryst.   s(13) = (    -1          0          0      )
                  (     0         -1          0      )
                  (     0          0         -1      )

 cart.    s(13) = ( -1.0000000  0.0000000  0.0000000 )
                  (  0.0000000 -1.0000000  0.0000000 )
                  (  0.0000000  0.0000000 -1.0000000 )


      isym = 14     inv. 180 deg rotation - cart. axis [0,0,1]   

 cryst.   s(14) = (     1          0          0      )    f =(  0.0000000 )
                  (     0          1          0      )       (  0.0000000 )
                  (     0          0         -1      )       (  0.5000000 )

 cart.    s(14) = (  1.0000000  0.0000000  0.0000000 )    f =(  0.0000000 )
                  (  0.0000000  1.0000000  0.0000000 )       (  0.0000000 )
                  (  0.0000000  0.0000000 -1.0000000 )       (  1.2998783 )


      isym = 15     inv. 180 deg rotation - cart. axis [0,1,0]   

 cryst.   s(15) = (     1          0          0      )    f =(  0.0000000 )
                  (    -1         -1          0      )       (  0.0000000 )
                  (     0          0          1      )       (  0.5000000 )

 cart.    s(15) = (  1.0000000  0.0000000  0.0000000 )    f =(  0.0000000 )
                  (  0.0000000 -1.0000000  0.0000000 )       (  0.0000000 )
                  (  0.0000000  0.0000000  1.0000000 )       (  1.2998783 )


      isym = 16     inv. 180 deg rotation - cart. axis [1,0,0]   

 cryst.   s(16) = (    -1          0          0      )
                  (     1          1          0      )
                  (     0          0          1      )

 cart.    s(16) = ( -1.0000000  0.0000000  0.0000000 )
                  (  0.0000000  1.0000000  0.0000000 )
                  (  0.0000000  0.0000000  1.0000000 )


      isym = 17     inv.  60 deg rotation - cryst. axis [0,0,1]  

 cryst.   s(17) = (    -1         -1          0      )    f =(  0.0000000 )
                  (     1          0          0      )       (  0.0000000 )
                  (     0          0         -1      )       (  0.5000000 )

 cart.    s(17) = ( -0.5000000  0.8660254  0.0000000 )    f =(  0.0000000 )
                  ( -0.8660254 -0.5000000  0.0000000 )       (  0.0000000 )
                  (  0.0000000  0.0000000 -1.0000000 )       (  1.2998783 )


      isym = 18     inv.  60 deg rotation - cryst. axis [0,0,-1] 

 cryst.   s(18) = (     0          1          0      )    f =(  0.0000000 )
                  (    -1         -1          0      )       (  0.0000000 )
                  (     0          0         -1      )       (  0.5000000 )

 cart.    s(18) = ( -0.5000000 -0.8660254  0.0000000 )    f =(  0.0000000 )
                  (  0.8660254 -0.5000000  0.0000000 )       (  0.0000000 )
                  (  0.0000000  0.0000000 -1.0000000 )       (  1.2998783 )


      isym = 19     inv. 120 deg rotation - cryst. axis [0,0,1]  

 cryst.   s(19) = (     0         -1          0      )
                  (     1          1          0      )
                  (     0          0         -1      )

 cart.    s(19) = (  0.5000000  0.8660254  0.0000000 )
                  ( -0.8660254  0.5000000  0.0000000 )
                  (  0.0000000  0.0000000 -1.0000000 )


      isym = 20     inv. 120 deg rotation - cryst. axis [0,0,-1] 

 cryst.   s(20) = (     1          1          0      )
                  (    -1          0          0      )
                  (     0          0         -1      )

 cart.    s(20) = (  0.5000000 -0.8660254  0.0000000 )
                  (  0.8660254  0.5000000  0.0000000 )
                  (  0.0000000  0.0000000 -1.0000000 )


      isym = 21     inv. 180 deg rotation - cryst. axis [1,-1,0] 

 cryst.   s(21) = (     0          1          0      )    f =(  0.0000000 )
                  (     1          0          0      )       (  0.0000000 )
                  (     0          0          1      )       (  0.5000000 )

 cart.    s(21) = ( -0.5000000  0.8660254  0.0000000 )    f =(  0.0000000 )
                  (  0.8660254  0.5000000  0.0000000 )       (  0.0000000 )
                  (  0.0000000  0.0000000  1.0000000 )       (  1.2998783 )


      isym = 22     inv. 180 deg rotation - cryst. axis [2,1,0]  

 cryst.   s(22) = (    -1         -1          0      )    f =(  0.0000000 )
                  (     0          1          0      )       (  0.0000000 )
                  (     0          0          1      )       (  0.5000000 )

 cart.    s(22) = ( -0.5000000 -0.8660254  0.0000000 )    f =(  0.0000000 )
                  ( -0.8660254  0.5000000  0.0000000 )       (  0.0000000 )
                  (  0.0000000  0.0000000  1.0000000 )       (  1.2998783 )


      isym = 23     inv. 180 deg rotation - cryst. axis [0,1,0]  

 cryst.   s(23) = (     1          1          0      )
                  (     0         -1          0      )
                  (     0          0          1      )

 cart.    s(23) = (  0.5000000  0.8660254  0.0000000 )
                  (  0.8660254 -0.5000000  0.0000000 )
                  (  0.0000000  0.0000000  1.0000000 )


      isym = 24     inv. 180 deg rotation - cryst. axis [1,1,0]  

 cryst.   s(24) = (     0         -1          0      )
                  (    -1          0          0      )
                  (     0          0          1      )

 cart.    s(24) = (  0.5000000 -0.8660254  0.0000000 )
                  ( -0.8660254 -0.5000000  0.0000000 )
                  (  0.0000000  0.0000000  1.0000000 )


     point group D_6h(6/mmm)
     there are 12 classes
     the character table:

       E     2C6   2C3   C2    3C2'  3C2'' i     2S3   2S6   s_h   3s_d  3s_v 
A_1g   1.00  1.00  1.00  1.00  1.00  1.00  1.00  1.00  1.00  1.00  1.00  1.00
A_2g   1.00  1.00  1.00  1.00 -1.00 -1.00  1.00  1.00  1.00  1.00 -1.00 -1.00
B_1g   1.00 -1.00  1.00 -1.00  1.00 -1.00  1.00 -1.00  1.00 -1.00  1.00 -1.00
B_2g   1.00 -1.00  1.00 -1.00 -1.00  1.00  1.00 -1.00  1.00 -1.00 -1.00  1.00
E_1g   2.00  1.00 -1.00 -2.00  0.00  0.00  2.00  1.00 -1.00 -2.00  0.00  0.00
E_2g   2.00 -1.00 -1.00  2.00  0.00  0.00  2.00 -1.00 -1.00  2.00  0.00  0.00
A_1u   1.00  1.00  1.00  1.00  1.00  1.00 -1.00 -1.00 -1.00 -1.00 -1.00 -1.00
A_2u   1.00  1.00  1.00  1.00 -1.00 -1.00 -1.00 -1.00 -1.00 -1.00  1.00  1.00
B_1u   1.00 -1.00  1.00 -1.00  1.00 -1.00 -1.00  1.00 -1.00  1.00 -1.00  1.00
B_2u   1.00 -1.00  1.00 -1.00 -1.00  1.00 -1.00  1.00 -1.00  1.00  1.00 -1.00
E_1u   2.00  1.00 -1.00 -2.00  0.00  0.00 -2.00 -1.00  1.00  2.00  0.00  0.00
E_2u   2.00 -1.00 -1.00  2.00  0.00  0.00 -2.00  1.00  1.00 -2.00  0.00  0.00

     the symmetry operations in each class and the name of the first element:

     E        1
          identity                                               
     2C6      5    6
           60 deg rotation - cryst. axis [0,0,1]                 
     2C3      7    8
          120 deg rotation - cryst. axis [0,0,1]                 
     C2       2
          180 deg rotation - cart. axis [0,0,1]                  
     3C2'     4   12   11
          180 deg rotation - cart. axis [1,0,0]                  
     3C2''    3    9   10
          180 deg rotation - cart. axis [0,1,0]                  
     i       13
          inversion                                              
     2S3     17   18
          inv.  60 deg rotation - cryst. axis [0,0,1]            
     2S6     19   20
          inv. 120 deg rotation - cryst. axis [0,0,1]            
     s_h     14
          inv. 180 deg rotation - cart. axis [0,0,1]             
     3s_d    16   24   23
          inv. 180 deg rotation - cart. axis [1,0,0]             
     3s_v    15   21   22
          inv. 180 deg rotation - cart. axis [0,1,0]             

   Cartesian axes

     site n.     atom                  positions (alat units)
         1           C   tau(   1) = (  -0.5000000   0.8660254   1.9498175  )
         2           C   tau(   2) = (   0.5000005   0.2886748   1.9498175  )
         3           C   tau(   3) = (  -0.5000000   0.8660254   0.6499392  )
         4           C   tau(   4) = (  -0.0000005   0.5773506   0.6499392  )

   Crystallographic axes

     site n.     atom                  positions (cryst. coord.)
         1           C   tau(   1) = (  0.0000000  1.0000000  0.7500000  )
         2           C   tau(   2) = (  0.6666670  0.3333330  0.7500000  )
         3           C   tau(   3) = (  0.0000000  1.0000000  0.2500000  )
         4           C   tau(   4) = (  0.3333330  0.6666670  0.2500000  )

     number of k points=     6  Marzari-Vanderbilt smearing, width (Ry)=  0.0200
                       cart. coord. in units 2pi/alat
        k(    1) = (   0.1250000   0.2165064   0.0961628), wk =   0.2500000
        k(    2) = (   0.1250000   0.5051815   0.0961628), wk =   0.5000000
        k(    3) = (   0.1250000  -0.3608439   0.0961628), wk =   0.5000000
        k(    4) = (   0.1250000  -0.0721688   0.0961628), wk =   0.2500000
        k(    5) = (   0.3750000   0.6495191   0.0961628), wk =   0.2500000
        k(    6) = (   0.3750000  -0.2165064   0.0961628), wk =   0.2500000

                       cryst. coord.
        k(    1) = (   0.1250000   0.1250000   0.2500000), wk =   0.2500000
        k(    2) = (   0.1250000   0.3750000   0.2500000), wk =   0.5000000
        k(    3) = (   0.1250000  -0.3750000   0.2500000), wk =   0.5000000
        k(    4) = (   0.1250000  -0.1250000   0.2500000), wk =   0.2500000
        k(    5) = (   0.3750000   0.3750000   0.2500000), wk =   0.2500000
        k(    6) = (   0.3750000  -0.3750000   0.2500000), wk =   0.2500000

     Dense  grid:    14339 G-vectors     FFT dimensions: (  24,  24,  60)

     Smooth grid:     5053 G-vectors     FFT dimensions: (  18,  18,  48)

     Dynamical RAM for                 wfc:       0.01 MB

     Dynamical RAM for     wfc (w. buffer):       0.10 MB

     Dynamical RAM for           str. fact:       0.03 MB

     Dynamical RAM for           local pot:       0.00 MB

     Dynamical RAM for          nlocal pot:       0.04 MB

     Dynamical RAM for                qrad:       0.71 MB

     Dynamical RAM for          rho,v,vnew:       0.19 MB

     Dynamical RAM for               rhoin:       0.06 MB

     Dynamical RAM for            rho*nmix:       0.44 MB

     Dynamical RAM for           G-vectors:       0.11 MB

     Dynamical RAM for          h,s,v(r/c):       0.03 MB

     Dynamical RAM for          <psi|beta>:       0.01 MB

     Dynamical RAM for                 psi:       0.03 MB

     Dynamical RAM for                hpsi:       0.03 MB

     Dynamical RAM for                spsi:       0.03 MB

     Dynamical RAM for      wfcinit/wfcrot:       0.04 MB

     Dynamical RAM for           addusdens:       1.29 MB

     Dynamical RAM for          addusforce:       1.47 MB

     Dynamical RAM for         addusstress:       1.37 MB

     Estimated static dynamical RAM per process >       1.90 MB

     Estimated max dynamical RAM per process >       3.37 MB

     Estimated total dynamical RAM >      26.97 MB

     Initial potential from superposition of free atoms

     starting charge   15.99979, renormalised to   16.00000
     Starting wfcs are   16 randomized atomic wfcs

     total cpu time spent up to now is        0.1 secs

     Self-consistent Calculation

     iteration #  1     ecut=    30.00 Ry     beta= 0.30
     Davidson diagonalization with overlap
     ethr =  1.00E-02,  avg # of iterations =  2.8

     total cpu time spent up to now is        0.3 secs

     total energy              =     -45.65833381 Ry
     estimated scf accuracy    <       0.36365302 Ry

     iteration #  2     ecut=    30.00 Ry     beta= 0.30
     Davidson diagonalization with overlap
     ethr =  2.27E-03,  avg # of iterations =  1.0

     total cpu time spent up to now is        0.3 secs

     total energy              =     -45.59137702 Ry
     estimated scf accuracy    <       0.13261473 Ry

     iteration #  3     ecut=    30.00 Ry     beta= 0.30
     Davidson diagonalization with overlap
     ethr =  8.29E-04,  avg # of iterations =  3.8

     total cpu time spent up to now is        0.3 secs

     total energy              =     -45.61220747 Ry
     estimated scf accuracy    <       0.00242736 Ry

     iteration #  4     ecut=    30.00 Ry     beta= 0.30
     Davidson diagonalization with overlap
     ethr =  1.52E-05,  avg # of iterations =  4.5

     total cpu time spent up to now is        0.4 secs

     total energy              =     -45.61169077 Ry
     estimated scf accuracy    <       0.00287405 Ry

     iteration #  5     ecut=    30.00 Ry     beta= 0.30
     Davidson diagonalization with overlap
     ethr =  1.52E-05,  avg # of iterations =  2.0

     total cpu time spent up to now is        0.4 secs

     total energy              =     -45.61210400 Ry
     estimated scf accuracy    <       0.00000346 Ry

     iteration #  6     ecut=    30.00 Ry     beta= 0.30
     Davidson diagonalization with overlap
     ethr =  2.16E-08,  avg # of iterations =  4.3

     total cpu time spent up to now is        0.4 secs

     total energy              =     -45.61210587 Ry
     estimated scf accuracy    <       0.00000274 Ry

     iteration #  7     ecut=    30.00 Ry     beta= 0.30
     Davidson diagonalization with overlap
     ethr =  1.71E-08,  avg # of iterations =  2.0

     total cpu time spent up to now is        0.5 secs

     total energy              =     -45.61210648 Ry
     estimated scf accuracy    <       0.00000017 Ry

     iteration #  8     ecut=    30.00 Ry     beta= 0.30
     Davidson diagonalization with overlap
     ethr =  1.07E-09,  avg # of iterations =  2.0

     total cpu time spent up to now is        0.5 secs

     total energy              =     -45.61210659 Ry
     estimated scf accuracy    <       0.00000002 Ry

     iteration #  9     ecut=    30.00 Ry     beta= 0.30
     Davidson diagonalization with overlap
     ethr =  1.35E-10,  avg # of iterations =  2.0

     total cpu time spent up to now is        0.5 secs

     total energy              =     -45.61210663 Ry
     estimated scf accuracy    <          1.3E-09 Ry

     iteration # 10     ecut=    30.00 Ry     beta= 0.30
     Davidson diagonalization with overlap
     ethr =  8.02E-12,  avg # of iterations =  2.0

     total cpu time spent up to now is        0.6 secs

     End of self-consistent calculation

          k = 0.1250 0.2165 0.0962 (   626 PWs)   bands (ev):

   -11.0014 -10.7214   0.4350   1.2761   1.3231   2.0728   2.3541   2.3872
    14.3562  15.4829  15.8579  16.6429

     occupation numbers 
     1.0000   1.0000   1.0000   1.0000   1.0000   1.0000   1.0000   1.0000
     0.0000   0.0000   0.0000   0.0000

          k = 0.1250 0.5052 0.0962 (   635 PWs)   bands (ev):

    -7.4637  -7.2506  -4.5503  -4.3875   0.0511   0.1365   4.4041   5.4742
     9.4208  10.1295  16.2659  16.6790

     occupation numbers 
     1.0000   1.0000   1.0000   1.0000   1.0000   1.0000   1.0000   1.0000
     0.0000   0.0000   0.0000   0.0000

          k = 0.1250-0.3608 0.0962 (   638 PWs)   bands (ev):

    -9.5484  -9.2933  -1.5354  -1.4209   0.8225   0.8942   2.1481   3.6490
    12.3795  12.9928  15.9849  16.6502

     occupation numbers 
     1.0000   1.0000   1.0000   1.0000   1.0000   1.0000   1.0000   1.0000
     0.0000   0.0000   0.0000   0.0000

          k = 0.1250-0.0722 0.0962 (   616 PWs)   bands (ev):

   -11.7394 -11.4467  -0.4507   1.2404   3.0686   3.1201   3.7487   3.7869
    13.5116  15.8213  15.9640  17.5437

     occupation numbers 
     1.0000   1.0000   1.0000   1.0000   1.0000   1.0000   1.0000   1.0000
     0.0000   0.0000   0.0000   0.0000

          k = 0.3750 0.6495 0.0962 (   638 PWs)   bands (ev):

    -5.8379  -5.7326  -4.9231  -4.8786  -2.2601  -2.1546   6.1028   6.7066
     8.4518   8.6141  18.2612  18.4100

     occupation numbers 
     1.0000   1.0000   1.0000   1.0000   1.0000   1.0000   1.0008   0.9992
     0.0000   0.0000   0.0000   0.0000

          k = 0.3750-0.2165 0.0962 (   632 PWs)   bands (ev):

    -8.8352  -8.5926  -3.2428  -3.0891   1.4321   1.4903   2.9374   4.3183
    10.8675  11.7511  14.9205  15.2601

     occupation numbers 
     1.0000   1.0000   1.0000   1.0000   1.0000   1.0000   1.0000   1.0000
     0.0000   0.0000   0.0000   0.0000

     the Fermi energy is     6.9567 ev

!    total energy              =     -45.61210667 Ry
     estimated scf accuracy    <          2.3E-11 Ry
     smearing contrib. (-TS)   =       0.00041727 Ry
     internal energy E=F+TS    =     -45.61252394 Ry

     The total energy is F=E-TS. E is the sum of the following terms:
     one-electron contribution =      -7.69697295 Ry
     hartree contribution      =      12.04982364 Ry
     xc contribution           =     -14.04939780 Ry
     ewald contribution        =     -35.87599557 Ry
     Dispersion Correction     =      -0.03998126 Ry

     convergence has been achieved in  10 iterations

     Forces acting on atoms (cartesian axes, Ry/au):

     atom    1 type  1   force =     0.00000000    0.00000000    0.00000000
     atom    2 type  1   force =     0.00000000   -0.00000000    0.00000000
     atom    3 type  1   force =     0.00000000    0.00000000    0.00000000
     atom    4 type  1   force =     0.00000000    0.00000000    0.00000000
     The non-local contrib.  to forces
     atom    1 type  1   force =    -0.00000000    0.00000000    0.00000000
     atom    2 type  1   force =     0.00000000   -0.00000000    0.00000000
     atom    3 type  1   force =     0.00000000    0.00000000    0.00000000
     atom    4 type  1   force =     0.00000000    0.00000000    0.00000000
     The ionic contribution  to forces
     atom    1 type  1   force =     0.00000852   -0.00000492   -0.00000000
     atom    2 type  1   force =    -0.00000856    0.00000494    0.00000000
     atom    3 type  1   force =    -0.00000852    0.00000492    0.00000000
     atom    4 type  1   force =     0.00000856   -0.00000494    0.00000000
     The local contribution  to forces
     atom    1 type  1   force =    -0.00000000    0.00000000    0.00000000
     atom    2 type  1   force =    -0.00000803    0.00000463    0.00000000
     atom    3 type  1   force =     0.00000000   -0.00000000    0.00000000
     atom    4 type  1   force =     0.00000803   -0.00000463    0.00000000
     The core correction contribution to forces
     atom    1 type  1   force =     0.00000000    0.00000000    0.00000000
     atom    2 type  1   force =     0.00000000    0.00000000    0.00000000
     atom    3 type  1   force =     0.00000000    0.00000000    0.00000000
     atom    4 type  1   force =     0.00000000    0.00000000    0.00000000
     The Hubbard contrib.    to forces
     atom    1 type  1   force =     0.00000000    0.00000000    0.00000000
     atom    2 type  1   force =     0.00000000    0.00000000    0.00000000
     atom    3 type  1   force =     0.00000000    0.00000000    0.00000000
     atom    4 type  1   force =     0.00000000    0.00000000    0.00000000
     The SCF correction term to forces
     atom    1 type  1   force =    -0.00000000    0.00000000    0.00000000
     atom    2 type  1   force =     0.00000000   -0.00000000    0.00000000
     atom    3 type  1   force =     0.00000000   -0.00000000    0.00000000
     atom    4 type  1   force =    -0.00000000    0.00000000   -0.00000000

     Dispersion contribution to forces:
     atom    1 type  1   force =     0.00000000   -0.00000000    0.00000000
     atom    2 type  1   force =    -0.00000000    0.00000000    0.00000000
     atom    3 type  1   force =    -0.00000000    0.00000000    0.00000000
     atom    4 type  1   force =     0.00000000   -0.00000000    0.00000000

     Total force =     0.000000     Total SCF correction =     0.000000

     Total Dispersion Force =     0.000000


     Computing stress (Cartesian axis) and pressure

          total   stress  (Ry/bohr**3)                   (kbar)     P=      -26.13
  -0.00024863   0.00000000  -0.00000000          -36.58        0.00       -0.00
   0.00000000  -0.00024863   0.00000000            0.00      -36.58        0.00
   0.00000000   0.00000000  -0.00003560            0.00        0.00       -5.24

     kinetic stress (kbar)  11017.08      0.00      0.00
                                0.00  11017.08      0.00
                                0.00      0.00  12794.66

     local   stress (kbar) -16862.72      0.01      0.00
                                0.01 -16862.71     -0.00
                                0.00     -0.00  24154.19

     nonloc. stress (kbar)   -466.71      0.00      0.00
                                0.00   -466.71      0.00
                                0.00      0.00   -468.38

     hartree stress (kbar)   6715.23      0.00     -0.00
                                0.00   6715.23     -0.00
                               -0.00     -0.00  -5650.64

     exc-cor stress (kbar)  -2789.17      0.00     -0.00
                                0.00  -2789.17      0.00
                               -0.00      0.00  -2883.49

     corecor stress (kbar)      0.00      0.00      0.00
                                0.00      0.00      0.00
                                0.00      0.00      0.00

     ewald   stress (kbar)   2365.81     -0.03     -0.00
                               -0.03   2365.78     -0.00
                               -0.00     -0.00 -27894.47

     hubbard stress (kbar)      0.00      0.00      0.00
                                0.00      0.00      0.00
                                0.00      0.00      0.00

     DFT-D   stress (kbar)    -16.08      0.00      0.00
                                0.00    -16.08     -0.00
                                0.00     -0.00    -57.12

     XDM     stress (kbar)      0.00      0.00      0.00
                                0.00      0.00      0.00
                                0.00      0.00      0.00

     dft-nl  stress (kbar)      0.00      0.00      0.00
                                0.00      0.00      0.00
                                0.00      0.00      0.00

     TS-vdW  stress (kbar)      0.00      0.00      0.00
                                0.00      0.00      0.00
                                0.00      0.00      0.00



     BFGS Geometry Optimization
     Energy error            =      0.0E+00
     Gradient error          =      2.4E-22
     Cell gradient error     =      2.5E-04


     number of scf cycles    =   1
     number of bfgs steps    =   0

     enthalpy new            =     -45.6121066663 Ry

     new trust radius        =       0.0187650920 bohr
     new conv_thr            =       0.0000000010 Ry

     new unit-cell volume =    224.82086 a.u.^3 (    33.31501 Ang^3 )
     density =      2.39468 g/cm^3

CELL_PARAMETERS (alat=  4.66006462)
   0.993784141  -0.000000000   0.000000000
  -0.496892071   0.860642312   0.000000000
  -0.000000000   0.000000000   2.597442988

ATOMIC_POSITIONS (crystal)
C             0.0000000000        1.0000000000        0.7500000000
C             0.6666670000        0.3333330000        0.7500000000
C             0.0000000000        1.0000000000        0.2500000000
C             0.3333330000        0.6666670000        0.2500000000



     Writing output data file ./tmp/graphite.save/
     NEW-OLD atomic charge density approx. for the potential
     extrapolated charge   15.78479, renormalised to   16.00000

     total cpu time spent up to now is        0.8 secs

     Self-consistent Calculation

     iteration #  1     ecut=    30.00 Ry     beta= 0.30
     Davidson diagonalization with overlap
     ethr =  1.00E-06,  avg # of iterations =  4.5

     total cpu time spent up to now is        1.0 secs

     total energy              =     -45.61039302 Ry
     estimated scf accuracy    <       0.00125787 Ry

     iteration #  2     ecut=    30.00 Ry     beta= 0.30
     Davidson diagonalization with overlap
     ethr =  7.86E-06,  avg # of iterations =  3.3

     total cpu time spent up to now is        1.0 secs

     total energy              =     -45.61206982 Ry
     estimated scf accuracy    <       0.00008620 Ry

     iteration #  3     ecut=    30.00 Ry     beta= 0.30
     Davidson diagonalization with overlap
     ethr =  5.39E-07,  avg # of iterations =  1.5

     total cpu time spent up to now is        1.0 secs

     total energy              =     -45.61204731 Ry
     estimated scf accuracy    <       0.00004522 Ry

     iteration #  4     ecut=    30.00 Ry     beta= 0.30
     Davidson diagonalization with overlap
     ethr =  2.83E-07,  avg # of iterations =  2.0

     total cpu time spent up to now is        1.1 secs

     total energy              =     -45.61205457 Ry
     estimated scf accuracy    <       0.00000036 Ry

     iteration #  5     ecut=    30.00 Ry     beta= 0.30
     Davidson diagonalization with overlap
     ethr =  2.25E-09,  avg # of iterations =  2.7

     total cpu time spent up to now is        1.1 secs

     total energy              =     -45.61205358 Ry
     estimated scf accuracy    <       0.00000377 Ry

     iteration #  6     ecut=    30.00 Ry     beta= 0.30
     Davidson diagonalization with overlap
     ethr =  2.25E-09,  avg # of iterations =  2.0

     total cpu time spent up to now is        1.1 secs

     total energy              =     -45.61205364 Ry
     estimated scf accuracy    <       0.00000040 Ry

     iteration #  7     ecut=    30.00 Ry     beta= 0.30
     Davidson diagonalization with overlap
     ethr =  2.25E-09,  avg # of iterations =  2.0

     total cpu time spent up to now is        1.2 secs

     total energy              =     -45.61205365 Ry
     estimated scf accuracy    <       0.00000004 Ry

     iteration #  8     ecut=    30.00 Ry     beta= 0.30
     Davidson diagonalization with overlap
     ethr =  2.46E-10,  avg # of iterations =  2.0

     total cpu time spent up to now is        1.2 secs

     total energy              =     -45.61205366 Ry
     estimated scf accuracy    <          1.4E-09 Ry

     iteration #  9     ecut=    30.00 Ry     beta= 0.30
     Davidson diagonalization with overlap
     ethr =  8.45E-12,  avg # of iterations =  1.3

     total cpu time spent up to now is        1.2 secs

     End of self-consistent calculation

          k = 0.1258 0.2179 0.0962 (   626 PWs)   bands (ev):

   -10.9832 -10.7039   0.4851   1.4174   1.4635   2.1214   2.4775   2.5101
    14.4645  15.7879  16.1625  16.9332

     occupation numbers 
     1.0000   1.0000   1.0000   1.0000   1.0000   1.0000   1.0000   1.0000
     0.0000   0.0000   0.0000   0.0000

          k = 0.1258 0.5083 0.0962 (   635 PWs)   bands (ev):

    -7.4005  -7.1876  -4.4775  -4.3147   0.1456   0.2299   4.5169   5.5885
     9.5990  10.3152  16.6138  17.0286

     occupation numbers 
     1.0000   1.0000   1.0000   1.0000   1.0000   1.0000   1.0000   1.0000
     0.0000   0.0000   0.0000   0.0000

          k = 0.1258-0.3631 0.0962 (   638 PWs)   bands (ev):

    -9.5136  -9.2592  -1.4227  -1.3090   0.9254   0.9964   2.2244   3.7251
    12.6200  13.2369  16.1277  16.9836

     occupation numbers 
     1.0000   1.0000   1.0000   1.0000   1.0000   1.0000   1.0000   1.0000
     0.0000   0.0000   0.0000   0.0000

          k = 0.1258-0.0726 0.0962 (   616 PWs)   bands (ev):

   -11.7294 -11.4372  -0.4139   1.2753   3.2210   3.2716   3.8977   3.9351
    13.6071  16.1094  16.2541  17.8909

     occupation numbers 
     1.0000   1.0000   1.0000   1.0000   1.0000   1.0000   1.0000   1.0000
     0.0000   0.0000   0.0000   0.0000

          k = 0.3773 0.6536 0.0962 (   638 PWs)   bands (ev):

    -5.7413  -5.6367  -4.8540  -4.8074  -2.2060  -2.0992   6.2443   6.8468
     8.6223   8.7785  18.4598  18.6308

     occupation numbers 
     1.0000   1.0000   1.0000   1.0000   1.0000   1.0000   1.0008   0.9992
     0.0000   0.0000   0.0000   0.0000

          k = 0.3773-0.2179 0.0962 (   632 PWs)   bands (ev):

    -8.7914  -8.5496  -3.1534  -3.0008   1.5417   1.5987   3.0263   4.4078
    11.0725  11.9632  15.2544  15.5893

     occupation numbers 
     1.0000   1.0000   1.0000   1.0000   1.0000   1.0000   1.0000   1.0000
     0.0000   0.0000   0.0000   0.0000

     the Fermi energy is     7.0969 ev

!    total energy              =     -45.61205366 Ry
     estimated scf accuracy    <          2.1E-10 Ry
     smearing contrib. (-TS)   =       0.00041747 Ry
     internal energy E=F+TS    =     -45.61247113 Ry

     The total energy is F=E-TS. E is the sum of the following terms:
     one-electron contribution =      -7.77613303 Ry
     hartree contribution      =      12.17445323 Ry
     xc contribution           =     -14.10300603 Ry
     ewald contribution        =     -35.86740447 Ry
     Dispersion Correction     =      -0.04038083 Ry

     convergence has been achieved in   9 iterations

     Forces acting on atoms (cartesian axes, Ry/au):

     atom    1 type  1   force =    -0.00000000   -0.00000000   -0.00000000
     atom    2 type  1   force =     0.00000000    0.00000000    0.00000000
     atom    3 type  1   force =    -0.00000000   -0.00000000   -0.00000000
     atom    4 type  1   force =    -0.00000000   -0.00000000   -0.00000000
     The non-local contrib.  to forces
     atom    1 type  1   force =    -0.00000000   -0.00000000    0.00000000
     atom    2 type  1   force =     0.00000000    0.00000000   -0.00000000
     atom    3 type  1   force =    -0.00000000   -0.00000000    0.00000000
     atom    4 type  1   force =    -0.00000000   -0.00000000   -0.00000000
     The ionic contribution  to forces
     atom    1 type  1   force =     0.00000863   -0.00000498   -0.00000000
     atom    2 type  1   force =    -0.00000866    0.00000500   -0.00000000
     atom    3 type  1   force =    -0.00000863    0.00000498   -0.00000000
     atom    4 type  1   force =     0.00000866   -0.00000500   -0.00000000
     The local contribution  to forces
     atom    1 type  1   force =    -0.00000000    0.00000000    0.00000000
     atom    2 type  1   force =    -0.00000795    0.00000459    0.00000000
     atom    3 type  1   force =     0.00000000   -0.00000000    0.00000000
     atom    4 type  1   force =     0.00000795   -0.00000459    0.00000000
     The core correction contribution to forces
     atom    1 type  1   force =     0.00000000    0.00000000    0.00000000
     atom    2 type  1   force =     0.00000000    0.00000000    0.00000000
     atom    3 type  1   force =     0.00000000    0.00000000    0.00000000
     atom    4 type  1   force =     0.00000000    0.00000000    0.00000000
     The Hubbard contrib.    to forces
     atom    1 type  1   force =     0.00000000    0.00000000    0.00000000
     atom    2 type  1   force =     0.00000000    0.00000000    0.00000000
     atom    3 type  1   force =     0.00000000    0.00000000    0.00000000
     atom    4 type  1   force =     0.00000000    0.00000000    0.00000000
     The SCF correction term to forces
     atom    1 type  1   force =    -0.00000000    0.00000000   -0.00000000
     atom    2 type  1   force =     0.00000000   -0.00000000   -0.00000000
     atom    3 type  1   force =     0.00000000   -0.00000000    0.00000000
     atom    4 type  1   force =    -0.00000000    0.00000000    0.00000000

     Dispersion contribution to forces:
     atom    1 type  1   force =     0.00000000   -0.00000000    0.00000000
     atom    2 type  1   force =    -0.00000000    0.00000000    0.00000000
     atom    3 type  1   force =    -0.00000000    0.00000000    0.00000000
     atom    4 type  1   force =     0.00000000   -0.00000000    0.00000000

     Total force =     0.000000     Total SCF correction =     0.000000

     Total Dispersion Force =     0.000000


     Computing stress (Cartesian axis) and pressure

          total   stress  (Ry/bohr**3)                   (kbar)     P=       27.17
   0.00029779  -0.00000000   0.00000000           43.81       -0.00        0.00
  -0.00000000   0.00029779  -0.00000000           -0.00       43.81       -0.00
   0.00000000  -0.00000000  -0.00004155            0.00       -0.00       -6.11

     kinetic stress (kbar)  11246.47      0.00      0.00
                                0.00  11246.47      0.00
                                0.00     -0.00  13015.32

     local   stress (kbar) -17322.90      0.01      0.00
                                0.01 -17322.89     -0.00
                                0.00     -0.00  24888.12

     nonloc. stress (kbar)   -488.77     -0.00     -0.00
                               -0.00   -488.77     -0.00
                                0.00      0.00   -486.40

     hartree stress (kbar)   6899.42     -0.00     -0.00
                               -0.00   6899.42      0.00
                               -0.00      0.00  -5832.85

     exc-cor stress (kbar)  -2837.66      0.00     -0.00
                                0.00  -2837.66      0.00
                               -0.00      0.00  -2933.66

     corecor stress (kbar)      0.00      0.00      0.00
                                0.00      0.00      0.00
                                0.00      0.00      0.00

     ewald   stress (kbar)   2564.58     -0.03     -0.00
                               -0.03   2564.55     -0.00
                               -0.00     -0.00 -28597.93

     hubbard stress (kbar)      0.00      0.00      0.00
                                0.00      0.00      0.00
                                0.00      0.00      0.00

     DFT-D   stress (kbar)    -17.32      0.00      0.00
                                0.00    -17.32      0.00
                                0.00      0.00    -58.72

     XDM     stress (kbar)      0.00      0.00      0.00
                                0.00      0.00      0.00
                                0.00      0.00      0.00

     dft-nl  stress (kbar)      0.00      0.00      0.00
                                0.00      0.00      0.00
                                0.00      0.00      0.00

     TS-vdW  stress (kbar)      0.00      0.00      0.00
                                0.00      0.00      0.00
                                0.00      0.00      0.00


     Energy error            =      5.3E-05
     Gradient error          =      2.5E-22
     Cell gradient error     =      3.0E-04


     number of scf cycles    =   2
     number of bfgs steps    =   1

     enthalpy old            =     -45.6121066663 Ry
     enthalpy new            =     -45.6120536583 Ry

     CASE: enthalpy_new > enthalpy_old

     new trust radius        =       0.0087280910 bohr
     new conv_thr            =       0.0000000010 Ry

     new unit-cell volume =    226.43486 a.u.^3 (    33.55418 Ang^3 )
     density =      2.37762 g/cm^3

CELL_PARAMETERS (alat=  4.66006462)
   0.997107569  -0.000000000   0.000000000
  -0.498553784   0.863520485   0.000000000
  -0.000000000   0.000000000   2.598680053

ATOMIC_POSITIONS (crystal)
C             0.0000000000        1.0000000000        0.7500000000
C             0.6666670000        0.3333330000        0.7500000000
C             0.0000000000        1.0000000000        0.2500000000
C             0.3333330000        0.6666670000        0.2500000000



     Writing output data file ./tmp/graphite.save/
     NEW-OLD atomic charge density approx. for the potential
     extrapolated charge   16.11404, renormalised to   16.00000

     total cpu time spent up to now is        1.5 secs

     Self-consistent Calculation

     iteration #  1     ecut=    30.00 Ry     beta= 0.30
     Davidson diagonalization with overlap
     ethr =  1.00E-06,  avg # of iterations =  3.0

     total cpu time spent up to now is        1.6 secs

     total energy              =     -45.61180094 Ry
     estimated scf accuracy    <       0.00035637 Ry

     iteration #  2     ecut=    30.00 Ry     beta= 0.30
     Davidson diagonalization with overlap
     ethr =  2.23E-06,  avg # of iterations =  3.0

     total cpu time spent up to now is        1.6 secs

     total energy              =     -45.61227844 Ry
     estimated scf accuracy    <       0.00002551 Ry

     iteration #  3     ecut=    30.00 Ry     beta= 0.30
     Davidson diagonalization with overlap
     ethr =  1.59E-07,  avg # of iterations =  1.0

     total cpu time spent up to now is        1.7 secs

     total energy              =     -45.61227169 Ry
     estimated scf accuracy    <       0.00001342 Ry

     iteration #  4     ecut=    30.00 Ry     beta= 0.30
     Davidson diagonalization with overlap
     ethr =  8.39E-08,  avg # of iterations =  2.0

     total cpu time spent up to now is        1.7 secs

     total energy              =     -45.61227375 Ry
     estimated scf accuracy    <       0.00000010 Ry

     iteration #  5     ecut=    30.00 Ry     beta= 0.30
     Davidson diagonalization with overlap
     ethr =  6.41E-10,  avg # of iterations =  2.3

     total cpu time spent up to now is        1.7 secs

     total energy              =     -45.61227352 Ry
     estimated scf accuracy    <       0.00000091 Ry

     iteration #  6     ecut=    30.00 Ry     beta= 0.30
     Davidson diagonalization with overlap
     ethr =  6.41E-10,  avg # of iterations =  2.0

     total cpu time spent up to now is        1.8 secs

     total energy              =     -45.61227354 Ry
     estimated scf accuracy    <       0.00000009 Ry

     iteration #  7     ecut=    30.00 Ry     beta= 0.30
     Davidson diagonalization with overlap
     ethr =  5.75E-10,  avg # of iterations =  2.0

     total cpu time spent up to now is        1.8 secs

     total energy              =     -45.61227354 Ry
     estimated scf accuracy    <       0.00000001 Ry

     iteration #  8     ecut=    30.00 Ry     beta= 0.30
     Davidson diagonalization with overlap
     ethr =  8.53E-11,  avg # of iterations =  2.0

     total cpu time spent up to now is        1.8 secs

     End of self-consistent calculation

          k = 0.1254 0.2171 0.0962 (   626 PWs)   bands (ev):

   -10.9931 -10.7134   0.4582   1.3414   1.3880   2.0953   2.4111   2.4440
    14.4064  15.6241  15.9989  16.7769

     occupation numbers 
     1.0000   1.0000   1.0000   1.0000   1.0000   1.0000   1.0000   1.0000
     0.0000   0.0000   0.0000   0.0000

          k = 0.1254 0.5066 0.0962 (   635 PWs)   bands (ev):

    -7.4345  -7.2215  -4.5167  -4.3539   0.0947   0.1796   4.4563   5.5271
     9.5033  10.2156  16.4271  16.8411

     occupation numbers 
     1.0000   1.0000   1.0000   1.0000   1.0000   1.0000   1.0000   1.0000
     0.0000   0.0000   0.0000   0.0000

          k = 0.1254-0.3619 0.0962 (   638 PWs)   bands (ev):

    -9.5324  -9.2776  -1.4834  -1.3692   0.8700   0.9413   2.1834   3.6843
    12.4909  13.1059  16.0515  16.8046

     occupation numbers 
     1.0000   1.0000   1.0000   1.0000   1.0000   1.0000   1.0000   1.0000
     0.0000   0.0000   0.0000   0.0000

          k = 0.1254-0.0724 0.0962 (   616 PWs)   bands (ev):

   -11.7349 -11.4425  -0.4336   1.2566   3.1390   3.1901   3.8175   3.8554
    13.5559  15.9548  16.0983  17.7044

     occupation numbers 
     1.0000   1.0000   1.0000   1.0000   1.0000   1.0000   1.0000   1.0000
     0.0000   0.0000   0.0000   0.0000

          k = 0.3761 0.6514 0.0962 (   638 PWs)   bands (ev):

    -5.7933  -5.6884  -4.8910  -4.8455  -2.2354  -2.1292   6.1683   6.7716
     8.5307   8.6902  18.3534  18.5130

     occupation numbers 
     1.0000   1.0000   1.0000   1.0000   1.0000   1.0000   1.0008   0.9992
     0.0000   0.0000   0.0000   0.0000

          k = 0.3761-0.2171 0.0962 (   632 PWs)   bands (ev):

    -8.8150  -8.5728  -3.2016  -3.0483   1.4827   1.5404   2.9786   4.3597
    10.9625  11.8493  15.0752  15.4128

     occupation numbers 
     1.0000   1.0000   1.0000   1.0000   1.0000   1.0000   1.0000   1.0000
     0.0000   0.0000   0.0000   0.0000

     the Fermi energy is     7.0216 ev

!    total energy              =     -45.61227354 Ry
     estimated scf accuracy    <          3.1E-10 Ry
     smearing contrib. (-TS)   =       0.00041736 Ry
     internal energy E=F+TS    =     -45.61269090 Ry

     The total energy is F=E-TS. E is the sum of the following terms:
     one-electron contribution =      -7.73332707 Ry
     hartree contribution      =      12.10742335 Ry
     xc contribution           =     -14.07425248 Ry
     ewald contribution        =     -35.87237033 Ry
     Dispersion Correction     =      -0.04016438 Ry

     convergence has been achieved in   8 iterations

     Forces acting on atoms (cartesian axes, Ry/au):

     atom    1 type  1   force =    -0.00000000   -0.00000000    0.00000000
     atom    2 type  1   force =     0.00000000    0.00000000    0.00000000
     atom    3 type  1   force =     0.00000000   -0.00000000    0.00000000
     atom    4 type  1   force =     0.00000000    0.00000000    0.00000000
     The non-local contrib.  to forces
     atom    1 type  1   force =    -0.00000000   -0.00000000    0.00000000
     atom    2 type  1   force =     0.00000000   -0.00000000    0.00000000
     atom    3 type  1   force =    -0.00000000    0.00000000   -0.00000000
     atom    4 type  1   force =    -0.00000000   -0.00000000   -0.00000000
     The ionic contribution  to forces
     atom    1 type  1   force =     0.00000857   -0.00000495   -0.00000000
     atom    2 type  1   force =    -0.00000861    0.00000497   -0.00000000
     atom    3 type  1   force =    -0.00000857    0.00000495   -0.00000000
     atom    4 type  1   force =     0.00000861   -0.00000497   -0.00000000
     The local contribution  to forces
     atom    1 type  1   force =     0.00000000    0.00000000    0.00000000
     atom    2 type  1   force =    -0.00000799    0.00000461    0.00000000
     atom    3 type  1   force =     0.00000000   -0.00000000    0.00000000
     atom    4 type  1   force =     0.00000799   -0.00000461    0.00000000
     The core correction contribution to forces
     atom    1 type  1   force =     0.00000000    0.00000000    0.00000000
     atom    2 type  1   force =     0.00000000    0.00000000    0.00000000
     atom    3 type  1   force =     0.00000000    0.00000000    0.00000000
     atom    4 type  1   force =     0.00000000    0.00000000    0.00000000
     The Hubbard contrib.    to forces
     atom    1 type  1   force =     0.00000000    0.00000000    0.00000000
     atom    2 type  1   force =     0.00000000    0.00000000    0.00000000
     atom    3 type  1   force =     0.00000000    0.00000000    0.00000000
     atom    4 type  1   force =     0.00000000    0.00000000    0.00000000
     The SCF correction term to forces
     atom    1 type  1   force =     0.00000000   -0.00000000    0.00000000
     atom    2 type  1   force =     0.00000000   -0.00000000    0.00000000
     atom    3 type  1   force =    -0.00000000    0.00000000   -0.00000000
     atom    4 type  1   force =    -0.00000000    0.00000000   -0.00000000

     Dispersion contribution to forces:
     atom    1 type  1   force =     0.00000000   -0.00000000   -0.00000000
     atom    2 type  1   force =    -0.00000000    0.00000000   -0.00000000
     atom    3 type  1   force =    -0.00000000    0.00000000    0.00000000
     atom    4 type  1   force =     0.00000000   -0.00000000    0.00000000

     Total force =     0.000000     Total SCF correction =     0.000000

     Total Dispersion Force =     0.000000


     Computing stress (Cartesian axis) and pressure

          total   stress  (Ry/bohr**3)                   (kbar)     P=       -1.70
   0.00000157   0.00000000   0.00000000            0.23        0.00        0.00
   0.00000000   0.00000157   0.00000000            0.00        0.23        0.00
   0.00000000  -0.00000000  -0.00003780            0.00       -0.00       -5.56

     kinetic stress (kbar)  11122.98      0.00      0.00
                                0.00  11122.98     -0.00
                               -0.00      0.00  12896.71

     local   stress (kbar) -17074.97      0.01      0.00
                                0.01 -17074.95      0.00
                                0.00      0.00  24492.70

     nonloc. stress (kbar)   -476.88     -0.00     -0.00
                               -0.00   -476.88      0.00
                               -0.00     -0.00   -476.69

     hartree stress (kbar)   6800.16     -0.00     -0.00
                               -0.00   6800.16      0.00
                               -0.00      0.00  -5734.65

     exc-cor stress (kbar)  -2811.59     -0.00     -0.00
                               -0.00  -2811.59      0.00
                               -0.00      0.00  -2906.69

     corecor stress (kbar)      0.00      0.00      0.00
                                0.00      0.00      0.00
                                0.00      0.00      0.00

     ewald   stress (kbar)   2457.18     -0.03      0.00
                               -0.03   2457.15     -0.00
                                0.00     -0.00 -28219.08

     hubbard stress (kbar)      0.00      0.00      0.00
                                0.00      0.00      0.00
                                0.00      0.00      0.00

     DFT-D   stress (kbar)    -16.64      0.00     -0.00
                                0.00    -16.64      0.00
                               -0.00      0.00    -57.86

     XDM     stress (kbar)      0.00      0.00      0.00
                                0.00      0.00      0.00
                                0.00      0.00      0.00

     dft-nl  stress (kbar)      0.00      0.00      0.00
                                0.00      0.00      0.00
                                0.00      0.00      0.00

     TS-vdW  stress (kbar)      0.00      0.00      0.00
                                0.00      0.00      0.00
                                0.00      0.00      0.00


     Energy error            =      1.7E-04
     Gradient error          =      1.4E-22
     Cell gradient error     =      3.8E-05


     number of scf cycles    =   3
     number of bfgs steps    =   1

     enthalpy old            =     -45.6121066663 Ry
     enthalpy new            =     -45.6122735407 Ry

     CASE: enthalpy_new < enthalpy_old

     new trust radius        =       0.0028655481 bohr
     new conv_thr            =            1.0E-11 Ry

     new unit-cell volume =    226.21163 a.u.^3 (    33.52111 Ang^3 )
     density =      2.37996 g/cm^3

CELL_PARAMETERS (alat=  4.66006462)
   0.997090762  -0.000000000  -0.000000000
  -0.498545381   0.863505929   0.000000000
   0.000000000   0.000000000   2.596205716

ATOMIC_POSITIONS (crystal)
C            -0.0000000000        1.0000000000        0.7500000000
C             0.6666670000        0.3333330000        0.7500000000
C            -0.0000000000        1.0000000000        0.2500000000
C             0.3333330000        0.6666670000        0.2500000000



     Writing output data file ./tmp/graphite.save/
     NEW-OLD atomic charge density approx. for the potential
     extrapolated charge   15.98421, renormalised to   16.00000

     total cpu time spent up to now is        2.1 secs

     Self-consistent Calculation

     iteration #  1     ecut=    30.00 Ry     beta= 0.30
     Davidson diagonalization with overlap
     ethr =  1.00E-06,  avg # of iterations =  2.0

     Threshold (ethr) on eigenvalues was too large:
     Diagonalizing with lowered threshold

     Davidson diagonalization with overlap
     ethr =  2.17E-08,  avg # of iterations =  1.0

     total cpu time spent up to now is        2.2 secs

     total energy              =     -45.61227365 Ry
     estimated scf accuracy    <       0.00000340 Ry

     iteration #  2     ecut=    30.00 Ry     beta= 0.30
     Davidson diagonalization with overlap
     ethr =  2.12E-08,  avg # of iterations =  2.8

     total cpu time spent up to now is        2.3 secs

     total energy              =     -45.61228178 Ry
     estimated scf accuracy    <       0.00000143 Ry

     iteration #  3     ecut=    30.00 Ry     beta= 0.30
     Davidson diagonalization with overlap
     ethr =  8.91E-09,  avg # of iterations =  1.0

     total cpu time spent up to now is        2.3 secs

     total energy              =     -45.61228126 Ry
     estimated scf accuracy    <       0.00000084 Ry

     iteration #  4     ecut=    30.00 Ry     beta= 0.30
     Davidson diagonalization with overlap
     ethr =  5.22E-09,  avg # of iterations =  2.0

     total cpu time spent up to now is        2.3 secs

     total energy              =     -45.61228144 Ry
     estimated scf accuracy    <       0.00000006 Ry

     iteration #  5     ecut=    30.00 Ry     beta= 0.30
     Davidson diagonalization with overlap
     ethr =  3.99E-10,  avg # of iterations =  1.0

     total cpu time spent up to now is        2.4 secs

     total energy              =     -45.61228142 Ry
     estimated scf accuracy    <       0.00000003 Ry

     iteration #  6     ecut=    30.00 Ry     beta= 0.30
     Davidson diagonalization with overlap
     ethr =  1.66E-10,  avg # of iterations =  2.0

     total cpu time spent up to now is        2.4 secs

     total energy              =     -45.61228143 Ry
     estimated scf accuracy    <          5.9E-11 Ry

     iteration #  7     ecut=    30.00 Ry     beta= 0.30
     Davidson diagonalization with overlap
     ethr =  3.67E-13,  avg # of iterations =  2.0

     total cpu time spent up to now is        2.4 secs

     total energy              =     -45.61228143 Ry
     estimated scf accuracy    <          4.2E-10 Ry

     iteration #  8     ecut=    30.00 Ry     beta= 0.30
     Davidson diagonalization with overlap
     ethr =  3.67E-13,  avg # of iterations =  2.0

     total cpu time spent up to now is        2.5 secs

     End of self-consistent calculation

          k = 0.1254 0.2171 0.0963 (   626 PWs)   bands (ev):

   -10.9828 -10.7011   0.4662   1.3530   1.3999   2.1108   2.4227   2.4558
    14.4292  15.6346  16.0116  16.7889

     occupation numbers 
     1.0000   1.0000   1.0000   1.0000   1.0000   1.0000   1.0000   1.0000
     0.0000   0.0000   0.0000   0.0000

          k = 0.1254 0.5067 0.0963 (   635 PWs)   bands (ev):

    -7.4238  -7.2092  -4.5059  -4.3418   0.1059   0.1915   4.4651   5.5410
     9.5137  10.2291  16.4379  16.8545

     occupation numbers 
     1.0000   1.0000   1.0000   1.0000   1.0000   1.0000   1.0000   1.0000
     0.0000   0.0000   0.0000   0.0000

          k = 0.1254-0.3619 0.0963 (   638 PWs)   bands (ev):

    -9.5220  -9.2654  -1.4722  -1.3571   0.8813   0.9533   2.1916   3.6994
    12.5009  13.1191  16.0723  16.8160

     occupation numbers 
     1.0000   1.0000   1.0000   1.0000   1.0000   1.0000   1.0000   1.0000
     0.0000   0.0000   0.0000   0.0000

          k = 0.1254-0.0724 0.0963 (   616 PWs)   bands (ev):

   -11.7246 -11.4302  -0.4257   1.2721   3.1506   3.2021   3.8291   3.8673
    13.5793  15.9665  16.1109  17.7154

     occupation numbers 
     1.0000   1.0000   1.0000   1.0000   1.0000   1.0000   1.0000   1.0000
     0.0000   0.0000   0.0000   0.0000

          k = 0.3761 0.6514 0.0963 (   638 PWs)   bands (ev):

    -5.7823  -5.6765  -4.8796  -4.8338  -2.2243  -2.1173   6.1775   6.7837
     8.5423   8.7033  18.3655  18.5258

     occupation numbers 
     1.0000   1.0000   1.0000   1.0000   1.0000   1.0000   1.0008   0.9992
     0.0000   0.0000   0.0000   0.0000

          k = 0.3761-0.2171 0.0963 (   632 PWs)   bands (ev):

    -8.8045  -8.5605  -3.1906  -3.0362   1.4941   1.5523   2.9870   4.3745
    10.9722  11.8633  15.0862  15.4262

     occupation numbers 
     1.0000   1.0000   1.0000   1.0000   1.0000   1.0000   1.0000   1.0000
     0.0000   0.0000   0.0000   0.0000

     the Fermi energy is     7.0338 ev

!    total energy              =     -45.61228143 Ry
     estimated scf accuracy    <          7.1E-12 Ry
     smearing contrib. (-TS)   =       0.00041692 Ry
     internal energy E=F+TS    =     -45.61269835 Ry

     The total energy is F=E-TS. E is the sum of the following terms:
     one-electron contribution =      -7.66394184 Ry
     hartree contribution      =      12.07967051 Ry
     xc contribution           =     -14.07457405 Ry
     ewald contribution        =     -35.91360281 Ry
     Dispersion Correction     =      -0.04025016 Ry

     convergence has been achieved in   8 iterations

     Forces acting on atoms (cartesian axes, Ry/au):

     atom    1 type  1   force =     0.00000000    0.00000000   -0.00000000
     atom    2 type  1   force =    -0.00000000   -0.00000000    0.00000000
     atom    3 type  1   force =    -0.00000000   -0.00000000   -0.00000000
     atom    4 type  1   force =     0.00000000   -0.00000000    0.00000000
     The non-local contrib.  to forces
     atom    1 type  1   force =    -0.00000000    0.00000000   -0.00000000
     atom    2 type  1   force =    -0.00000000   -0.00000000    0.00000000
     atom    3 type  1   force =     0.00000000    0.00000000   -0.00000000
     atom    4 type  1   force =    -0.00000000    0.00000000   -0.00000000
     The ionic contribution  to forces
     atom    1 type  1   force =     0.00000857   -0.00000495   -0.00000000
     atom    2 type  1   force =    -0.00000861    0.00000497   -0.00000000
     atom    3 type  1   force =    -0.00000857    0.00000495   -0.00000000
     atom    4 type  1   force =     0.00000861   -0.00000497    0.00000000
     The local contribution  to forces
     atom    1 type  1   force =     0.00000000    0.00000000    0.00000000
     atom    2 type  1   force =    -0.00000799    0.00000461    0.00000000
     atom    3 type  1   force =     0.00000000   -0.00000000    0.00000000
     atom    4 type  1   force =     0.00000799   -0.00000461    0.00000000
     The core correction contribution to forces
     atom    1 type  1   force =     0.00000000    0.00000000    0.00000000
     atom    2 type  1   force =     0.00000000    0.00000000    0.00000000
     atom    3 type  1   force =     0.00000000    0.00000000    0.00000000
     atom    4 type  1   force =     0.00000000    0.00000000    0.00000000
     The Hubbard contrib.    to forces
     atom    1 type  1   force =     0.00000000    0.00000000    0.00000000
     atom    2 type  1   force =     0.00000000    0.00000000    0.00000000
     atom    3 type  1   force =     0.00000000    0.00000000    0.00000000
     atom    4 type  1   force =     0.00000000    0.00000000    0.00000000
     The SCF correction term to forces
     atom    1 type  1   force =    -0.00000000    0.00000000    0.00000000
     atom    2 type  1   force =    -0.00000000    0.00000000    0.00000000
     atom    3 type  1   force =     0.00000000   -0.00000000   -0.00000000
     atom    4 type  1   force =     0.00000000   -0.00000000   -0.00000000

     Dispersion contribution to forces:
     atom    1 type  1   force =     0.00000000   -0.00000000    0.00000000
     atom    2 type  1   force =    -0.00000000    0.00000000    0.00000000
     atom    3 type  1   force =    -0.00000000    0.00000000    0.00000000
     atom    4 type  1   force =     0.00000000   -0.00000000    0.00000000

     Total force =     0.000000     Total SCF correction =     0.000000

     Total Dispersion Force =     0.000000


     Computing stress (Cartesian axis) and pressure

          total   stress  (Ry/bohr**3)                   (kbar)     P=       -1.49
   0.00000241   0.00000000   0.00000000            0.36        0.00        0.00
   0.00000000   0.00000241  -0.00000000            0.00        0.36       -0.00
   0.00000000  -0.00000000  -0.00003520            0.00       -0.00       -5.18

     kinetic stress (kbar)  11134.22      0.00     -0.00
                                0.00  11134.22     -0.00
                               -0.00      0.00  12909.93

     local   stress (kbar) -17047.53      0.01      0.00
                                0.01 -17047.52      0.00
                                0.00      0.00  24473.23

     nonloc. stress (kbar)   -477.38     -0.00      0.00
                               -0.00   -477.38      0.00
                                0.00      0.00   -477.20

     hartree stress (kbar)   6788.90      0.00     -0.00
                                0.00   6788.90     -0.00
                               -0.00     -0.00  -5722.41

     exc-cor stress (kbar)  -2814.45     -0.00      0.00
                               -0.00  -2814.45     -0.00
                                0.00     -0.00  -2909.55

     corecor stress (kbar)      0.00      0.00      0.00
                                0.00      0.00      0.00
                                0.00      0.00      0.00

     ewald   stress (kbar)   2433.31     -0.03      0.00
                               -0.03   2433.28      0.00
                                0.00      0.00 -28221.16

     hubbard stress (kbar)      0.00      0.00      0.00
                                0.00      0.00      0.00
                                0.00      0.00      0.00

     DFT-D   stress (kbar)    -16.72      0.00     -0.00
                                0.00    -16.72      0.00
                               -0.00      0.00    -58.03

     XDM     stress (kbar)      0.00      0.00      0.00
                                0.00      0.00      0.00
                                0.00      0.00      0.00

     dft-nl  stress (kbar)      0.00      0.00      0.00
                                0.00      0.00      0.00
                                0.00      0.00      0.00

     TS-vdW  stress (kbar)      0.00      0.00      0.00
                                0.00      0.00      0.00
                                0.00      0.00      0.00


     Energy error            =      7.9E-06
     Gradient error          =      3.3E-22
     Cell gradient error     =      3.5E-05


     number of scf cycles    =   4
     number of bfgs steps    =   2

     enthalpy old            =     -45.6122735407 Ry
     enthalpy new            =     -45.6122814288 Ry

     CASE: enthalpy_new < enthalpy_old


     WARNING: bfgs curvature condition failed, Theta= 0.860
     new trust radius        =       0.0031535515 bohr
     new conv_thr            =            1.0E-11 Ry

     new unit-cell volume =    225.97018 a.u.^3 (    33.48533 Ang^3 )
     density =      2.38250 g/cm^3

CELL_PARAMETERS (alat=  4.66006462)
   0.997081279  -0.000000000   0.000000000
  -0.498540639   0.863497717  -0.000000000
   0.000000000   0.000000000   2.593483945

ATOMIC_POSITIONS (crystal)
C            -0.0000000000        1.0000000000        0.7500000000
C             0.6666670000        0.3333330000        0.7500000000
C            -0.0000000000        1.0000000000        0.2500000000
C             0.3333330000        0.6666670000        0.2500000000



     Writing output data file ./tmp/graphite.save/
     NEW-OLD atomic charge density approx. for the potential
     extrapolated charge   15.98290, renormalised to   16.00000

     total cpu time spent up to now is        2.7 secs

     Self-consistent Calculation

     iteration #  1     ecut=    30.00 Ry     beta= 0.30
     Davidson diagonalization with overlap
     ethr =  1.00E-06,  avg # of iterations =  2.0

     Threshold (ethr) on eigenvalues was too large:
     Diagonalizing with lowered threshold

     Davidson diagonalization with overlap
     ethr =  2.52E-08,  avg # of iterations =  1.0

     total cpu time spent up to now is        2.9 secs

     total energy              =     -45.61228028 Ry
     estimated scf accuracy    <       0.00000395 Ry

     iteration #  2     ecut=    30.00 Ry     beta= 0.30
     Davidson diagonalization with overlap
     ethr =  2.47E-08,  avg # of iterations =  2.8

     total cpu time spent up to now is        2.9 secs

     total energy              =     -45.61228977 Ry
     estimated scf accuracy    <       0.00000168 Ry

     iteration #  3     ecut=    30.00 Ry     beta= 0.30
     Davidson diagonalization with overlap
     ethr =  1.05E-08,  avg # of iterations =  1.0

     total cpu time spent up to now is        2.9 secs

     total energy              =     -45.61228916 Ry
     estimated scf accuracy    <       0.00000099 Ry

     iteration #  4     ecut=    30.00 Ry     beta= 0.30
     Davidson diagonalization with overlap
     ethr =  6.16E-09,  avg # of iterations =  2.0

     total cpu time spent up to now is        3.0 secs

     total energy              =     -45.61228937 Ry
     estimated scf accuracy    <       0.00000008 Ry

     iteration #  5     ecut=    30.00 Ry     beta= 0.30
     Davidson diagonalization with overlap
     ethr =  4.71E-10,  avg # of iterations =  1.0

     total cpu time spent up to now is        3.0 secs

     total energy              =     -45.61228935 Ry
     estimated scf accuracy    <       0.00000003 Ry

     iteration #  6     ecut=    30.00 Ry     beta= 0.30
     Davidson diagonalization with overlap
     ethr =  1.93E-10,  avg # of iterations =  2.0

     total cpu time spent up to now is        3.0 secs

     total energy              =     -45.61228936 Ry
     estimated scf accuracy    <          4.8E-11 Ry

     iteration #  7     ecut=    30.00 Ry     beta= 0.30
     Davidson diagonalization with overlap
     ethr =  2.98E-13,  avg # of iterations =  2.2

     total cpu time spent up to now is        3.1 secs

     total energy              =     -45.61228936 Ry
     estimated scf accuracy    <          4.8E-10 Ry

     iteration #  8     ecut=    30.00 Ry     beta= 0.30
     Davidson diagonalization with overlap
     ethr =  2.98E-13,  avg # of iterations =  2.0

     total cpu time spent up to now is        3.1 secs

     total energy              =     -45.61228936 Ry
     estimated scf accuracy    <          1.5E-11 Ry

     iteration #  9     ecut=    30.00 Ry     beta= 0.30
     Davidson diagonalization with overlap
     ethr =  1.00E-13,  avg # of iterations =  2.0

     total cpu time spent up to now is        3.1 secs

     End of self-consistent calculation

          k = 0.1254 0.2171 0.0964 (   626 PWs)   bands (ev):

   -10.9716 -10.6877   0.4749   1.3654   1.4128   2.1277   2.4352   2.4686
    14.4542  15.6456  16.0251  16.8016

     occupation numbers 
     1.0000   1.0000   1.0000   1.0000   1.0000   1.0000   1.0000   1.0000
     0.0000   0.0000   0.0000   0.0000

          k = 0.1254 0.5067 0.0964 (   635 PWs)   bands (ev):

    -7.4123  -7.1960  -4.4941  -4.3287   0.1181   0.2045   4.4746   5.5560
     9.5249  10.2437  16.4494  16.8687

     occupation numbers 
     1.0000   1.0000   1.0000   1.0000   1.0000   1.0000   1.0000   1.0000
     0.0000   0.0000   0.0000   0.0000

          k = 0.1254-0.3619 0.0964 (   638 PWs)   bands (ev):

    -9.5106  -9.2520  -1.4601  -1.3441   0.8936   0.9662   2.2005   3.7160
    12.5115  13.1332  16.0951  16.8280

     occupation numbers 
     1.0000   1.0000   1.0000   1.0000   1.0000   1.0000   1.0000   1.0000
     0.0000   0.0000   0.0000   0.0000

          k = 0.1254-0.0724 0.0964 (   616 PWs)   bands (ev):

   -11.7135 -11.4168  -0.4171   1.2892   3.1630   3.2151   3.8416   3.8802
    13.6051  15.9789  16.1243  17.7268

     occupation numbers 
     1.0000   1.0000   1.0000   1.0000   1.0000   1.0000   1.0000   1.0000
     0.0000   0.0000   0.0000   0.0000

          k = 0.3761 0.6514 0.0964 (   638 PWs)   bands (ev):

    -5.7704  -5.6637  -4.8673  -4.8210  -2.2123  -2.1044   6.1874   6.7968
     8.5548   8.7174  18.3785  18.5396

     occupation numbers 
     1.0000   1.0000   1.0000   1.0000   1.0000   1.0000   1.0007   0.9993
     0.0000   0.0000   0.0000   0.0000

          k = 0.3761-0.2171 0.0964 (   632 PWs)   bands (ev):

    -8.7931  -8.5472  -3.1787  -3.0231   1.5064   1.5652   2.9961   4.3907
    10.9825  11.8783  15.0978  15.4404

     occupation numbers 
     1.0000   1.0000   1.0000   1.0000   1.0000   1.0000   1.0000   1.0000
     0.0000   0.0000   0.0000   0.0000

     the Fermi energy is     7.0469 ev

!    total energy              =     -45.61228936 Ry
     estimated scf accuracy    <          1.0E-13 Ry
     smearing contrib. (-TS)   =       0.00041646 Ry
     internal energy E=F+TS    =     -45.61270581 Ry

     The total energy is F=E-TS. E is the sum of the following terms:
     one-electron contribution =      -7.58746703 Ry
     hartree contribution      =      12.04899743 Ry
     xc contribution           =     -14.07486308 Ry
     ewald contribution        =     -35.95902879 Ry
     Dispersion Correction     =      -0.04034435 Ry

     convergence has been achieved in   9 iterations

     Forces acting on atoms (cartesian axes, Ry/au):

     atom    1 type  1   force =    -0.00000000   -0.00000000    0.00000000
     atom    2 type  1   force =     0.00000000    0.00000000    0.00000000
     atom    3 type  1   force =     0.00000000    0.00000000   -0.00000000
     atom    4 type  1   force =     0.00000000    0.00000000    0.00000000
     The non-local contrib.  to forces
     atom    1 type  1   force =    -0.00000000    0.00000000   -0.00000000
     atom    2 type  1   force =     0.00000000    0.00000000   -0.00000000
     atom    3 type  1   force =     0.00000000    0.00000000   -0.00000000
     atom    4 type  1   force =    -0.00000000   -0.00000000    0.00000000
     The ionic contribution  to forces
     atom    1 type  1   force =     0.00000857   -0.00000495   -0.00000000
     atom    2 type  1   force =    -0.00000861    0.00000497   -0.00000000
     atom    3 type  1   force =    -0.00000857    0.00000495   -0.00000000
     atom    4 type  1   force =     0.00000861   -0.00000497   -0.00000000
     The local contribution  to forces
     atom    1 type  1   force =     0.00000000    0.00000000    0.00000000
     atom    2 type  1   force =    -0.00000799    0.00000461    0.00000000
     atom    3 type  1   force =     0.00000000   -0.00000000    0.00000000
     atom    4 type  1   force =     0.00000799   -0.00000461    0.00000000
     The core correction contribution to forces
     atom    1 type  1   force =     0.00000000    0.00000000    0.00000000
     atom    2 type  1   force =     0.00000000    0.00000000    0.00000000
     atom    3 type  1   force =     0.00000000    0.00000000    0.00000000
     atom    4 type  1   force =     0.00000000    0.00000000    0.00000000
     The Hubbard contrib.    to forces
     atom    1 type  1   force =     0.00000000    0.00000000    0.00000000
     atom    2 type  1   force =     0.00000000    0.00000000    0.00000000
     atom    3 type  1   force =     0.00000000    0.00000000    0.00000000
     atom    4 type  1   force =     0.00000000    0.00000000    0.00000000
     The SCF correction term to forces
     atom    1 type  1   force =     0.00000000   -0.00000000   -0.00000000
     atom    2 type  1   force =    -0.00000000    0.00000000   -0.00000000
     atom    3 type  1   force =    -0.00000000    0.00000000    0.00000000
     atom    4 type  1   force =     0.00000000   -0.00000000    0.00000000

     Dispersion contribution to forces:
     atom    1 type  1   force =     0.00000000   -0.00000000    0.00000000
     atom    2 type  1   force =    -0.00000000    0.00000000    0.00000000
     atom    3 type  1   force =    -0.00000000    0.00000000   -0.00000000
     atom    4 type  1   force =     0.00000000   -0.00000000   -0.00000000

     Total force =     0.000000     Total SCF correction =     0.000000

     Total Dispersion Force =     0.000000


     Computing stress (Cartesian axis) and pressure

          total   stress  (Ry/bohr**3)                   (kbar)     P=       -1.31
   0.00000258   0.00000000   0.00000000            0.38        0.00        0.00
   0.00000000   0.00000258  -0.00000000            0.00        0.38       -0.00
   0.00000000  -0.00000000  -0.00003178            0.00       -0.00       -4.68

     kinetic stress (kbar)  11146.31     -0.00      0.00
                               -0.00  11146.31     -0.00
                                0.00     -0.00  12924.26

     local   stress (kbar) -17016.64      0.01     -0.00
                                0.01 -17016.63      0.00
                               -0.00      0.00  24450.75

     nonloc. stress (kbar)   -477.89     -0.00      0.00
                               -0.00   -477.89      0.00
                               -0.00     -0.00   -477.72

     hartree stress (kbar)   6776.25      0.00     -0.00
                                0.00   6776.25     -0.00
                               -0.00     -0.00  -5708.69

     exc-cor stress (kbar)  -2817.53      0.00     -0.00
                                0.00  -2817.53      0.00
                               -0.00      0.00  -2912.64

     corecor stress (kbar)      0.00      0.00      0.00
                                0.00      0.00      0.00
                                0.00      0.00      0.00

     ewald   stress (kbar)   2406.68     -0.03     -0.00
                               -0.03   2406.65     -0.00
                               -0.00     -0.00 -28222.42

     hubbard stress (kbar)      0.00      0.00      0.00
                                0.00      0.00      0.00
                                0.00      0.00      0.00

     DFT-D   stress (kbar)    -16.80      0.00      0.00
                                0.00    -16.80     -0.00
                                0.00     -0.00    -58.21

     XDM     stress (kbar)      0.00      0.00      0.00
                                0.00      0.00      0.00
                                0.00      0.00      0.00

     dft-nl  stress (kbar)      0.00      0.00      0.00
                                0.00      0.00      0.00
                                0.00      0.00      0.00

     TS-vdW  stress (kbar)      0.00      0.00      0.00
                                0.00      0.00      0.00
                                0.00      0.00      0.00


     Energy error            =      7.9E-06
     Gradient error          =      7.1E-23
     Cell gradient error     =      3.2E-05


     number of scf cycles    =   5
     number of bfgs steps    =   3

     enthalpy old            =     -45.6122814288 Ry
     enthalpy new            =     -45.6122893573 Ry

     CASE: enthalpy_new < enthalpy_old

     new trust radius        =       0.0047327637 bohr
     new conv_thr            =            1.0E-11 Ry

     new unit-cell volume =    225.61142 a.u.^3 (    33.43216 Ang^3 )
     density =      2.38629 g/cm^3

CELL_PARAMETERS (alat=  4.66006462)
[...]

     E        1
          identity                                               
     2C6      5    6
           60 deg rotation - cryst. axis [0,0,1]                 
     2C3      7    8
          120 deg rotation - cryst. axis [0,0,1]                 
     C2       2
          180 deg rotation - cart. axis [0,0,1]                  
     3C2'     4   12   11
          180 deg rotation - cart. axis [1,0,0]                  
     3C2''    3    9   10
          180 deg rotation - cart. axis [0,1,0]                  
     i       13
          inversion                                              
     2S3     17   18
          inv.  60 deg rotation - cryst. axis [0,0,1]            
     2S6     19   20
          inv. 120 deg rotation - cryst. axis [0,0,1]            
     s_h     14
          inv. 180 deg rotation - cart. axis [0,0,1]             
     3s_d    16   24   23
          inv. 180 deg rotation - cart. axis [1,0,0]             
     3s_v    15   21   22
          inv. 180 deg rotation - cart. axis [0,1,0]             

   Cartesian axes

     site n.     atom                  positions (alat units)
         1           C   tau(   1) = (  -0.4985201   0.8634621   1.9270477  )
         2           C   tau(   2) = (   0.4985206   0.2878204   1.9270477  )
         3           C   tau(   3) = (  -0.4985201   0.8634621   0.6423492  )
         4           C   tau(   4) = (  -0.0000005   0.5756417   0.6423492  )

   Crystallographic axes

     site n.     atom                  positions (cryst. coord.)
         1           C   tau(   1) = ( -0.0000000  1.0000000  0.7500000  )
         2           C   tau(   2) = (  0.6666670  0.3333330  0.7500000  )
         3           C   tau(   3) = ( -0.0000000  1.0000000  0.2500000  )
         4           C   tau(   4) = (  0.3333330  0.6666670  0.2500000  )

     number of k points=     6  Marzari-Vanderbilt smearing, width (Ry)=  0.0200
                       cart. coord. in units 2pi/alat
        k(    1) = (   0.1253711   0.2171491   0.0972991), wk =   0.2500000
        k(    2) = (   0.1253711   0.5066812   0.0972991), wk =   0.5000000
        k(    3) = (   0.1253711  -0.3619151   0.0972991), wk =   0.5000000
        k(    4) = (   0.1253711  -0.0723830   0.0972991), wk =   0.2500000
        k(    5) = (   0.3761132   0.6514472   0.0972991), wk =   0.2500000
        k(    6) = (   0.3761132  -0.2171491   0.0972991), wk =   0.2500000

                       cryst. coord.
        k(    1) = (   0.1250000   0.1250000   0.2500000), wk =   0.2500000
        k(    2) = (   0.1250000   0.3750000   0.2500000), wk =   0.5000000
        k(    3) = (   0.1250000  -0.3750000   0.2500000), wk =   0.5000000
        k(    4) = (   0.1250000  -0.1250000   0.2500000), wk =   0.2500000
        k(    5) = (   0.3750000   0.3750000   0.2500000), wk =   0.2500000
        k(    6) = (   0.3750000  -0.3750000   0.2500000), wk =   0.2500000

     Dense  grid:    14159 G-vectors     FFT dimensions: (  24,  24,  60)

     Smooth grid:     4943 G-vectors     FFT dimensions: (  18,  18,  48)

     Dynamical RAM for                 wfc:       0.01 MB

     Dynamical RAM for     wfc (w. buffer):       0.10 MB

     Dynamical RAM for           str. fact:       0.03 MB

     Dynamical RAM for           local pot:       0.01 MB

     Dynamical RAM for          nlocal pot:       0.04 MB

     Dynamical RAM for                qrad:       0.71 MB

     Dynamical RAM for          rho,v,vnew:       0.19 MB

     Dynamical RAM for               rhoin:       0.06 MB

     Dynamical RAM for            rho*nmix:       0.43 MB

     Dynamical RAM for           G-vectors:       0.11 MB

     Dynamical RAM for          h,s,v(r/c):       0.03 MB

     Dynamical RAM for          <psi|beta>:       0.01 MB

     Dynamical RAM for                 psi:       0.03 MB

     Dynamical RAM for                hpsi:       0.03 MB

     Dynamical RAM for                spsi:       0.03 MB

     Dynamical RAM for      wfcinit/wfcrot:       0.04 MB

     Dynamical RAM for           addusdens:       1.27 MB

     Dynamical RAM for          addusforce:       1.45 MB

     Dynamical RAM for         addusstress:       1.35 MB

     Estimated static dynamical RAM per process >       1.90 MB

     Estimated max dynamical RAM per process >       3.35 MB

     Estimated total dynamical RAM >      26.83 MB

     Initial potential from superposition of free atoms

     starting charge   15.99979, renormalised to   16.00000
     Starting wfcs are   16 randomized atomic wfcs

     total cpu time spent up to now is        6.1 secs

     Self-consistent Calculation

     iteration #  1     ecut=    30.00 Ry     beta= 0.30
     Davidson diagonalization with overlap
     c_bands:  1 eigenvalues not converged
     ethr =  1.00E-06,  avg # of iterations = 14.8

     total cpu time spent up to now is        6.3 secs

     total energy              =     -45.65513709 Ry
     estimated scf accuracy    <       0.38786604 Ry

     iteration #  2     ecut=    30.00 Ry     beta= 0.30
     Davidson diagonalization with overlap
     ethr =  2.42E-03,  avg # of iterations =  1.0

     total cpu time spent up to now is        6.3 secs

     total energy              =     -45.59312146 Ry
     estimated scf accuracy    <       0.13188689 Ry

     iteration #  3     ecut=    30.00 Ry     beta= 0.30
     Davidson diagonalization with overlap
     ethr =  8.24E-04,  avg # of iterations =  2.5

     total cpu time spent up to now is        6.3 secs

     total energy              =     -45.61209876 Ry
     estimated scf accuracy    <       0.00181056 Ry

     iteration #  4     ecut=    30.00 Ry     beta= 0.30
     Davidson diagonalization with overlap
     ethr =  1.13E-05,  avg # of iterations =  4.0

     total cpu time spent up to now is        6.4 secs

     total energy              =     -45.61227767 Ry
     estimated scf accuracy    <       0.00017841 Ry

     iteration #  5     ecut=    30.00 Ry     beta= 0.30
     Davidson diagonalization with overlap
     ethr =  1.12E-06,  avg # of iterations =  3.0

     total cpu time spent up to now is        6.4 secs

     total energy              =     -45.61229901 Ry
     estimated scf accuracy    <       0.00000187 Ry

     iteration #  6     ecut=    30.00 Ry     beta= 0.30
     Davidson diagonalization with overlap
     ethr =  1.17E-08,  avg # of iterations =  3.0

     total cpu time spent up to now is        6.4 secs

     total energy              =     -45.61229991 Ry
     estimated scf accuracy    <       0.00000285 Ry

     iteration #  7     ecut=    30.00 Ry     beta= 0.30
     Davidson diagonalization with overlap
     ethr =  1.17E-08,  avg # of iterations =  1.3

     total cpu time spent up to now is        6.5 secs

     total energy              =     -45.61229999 Ry
     estimated scf accuracy    <       0.00000045 Ry

     iteration #  8     ecut=    30.00 Ry     beta= 0.30
     Davidson diagonalization with overlap
     ethr =  2.79E-09,  avg # of iterations =  2.0

     total cpu time spent up to now is        6.5 secs

     total energy              =     -45.61230014 Ry
     estimated scf accuracy    <          1.4E-09 Ry

     iteration #  9     ecut=    30.00 Ry     beta= 0.30
     Davidson diagonalization with overlap
     ethr =  9.03E-12,  avg # of iterations =  2.7

     total cpu time spent up to now is        6.5 secs

     total energy              =     -45.61230018 Ry
     estimated scf accuracy    <          1.0E-09 Ry

     iteration # 10     ecut=    30.00 Ry     beta= 0.30
     Davidson diagonalization with overlap
     ethr =  6.43E-12,  avg # of iterations =  2.0

     total cpu time spent up to now is        6.6 secs

     total energy              =     -45.61230020 Ry
     estimated scf accuracy    <          5.0E-11 Ry

     iteration # 11     ecut=    30.00 Ry     beta= 0.30
     Davidson diagonalization with overlap
     ethr =  3.14E-13,  avg # of iterations =  2.0

     total cpu time spent up to now is        6.6 secs

     total energy              =     -45.61230021 Ry
     estimated scf accuracy    <          1.2E-11 Ry

     iteration # 12     ecut=    30.00 Ry     beta= 0.30
     Davidson diagonalization with overlap
     ethr =  1.00E-13,  avg # of iterations =  2.0

     total cpu time spent up to now is        6.6 secs

     End of self-consistent calculation

          k = 0.1254 0.2171 0.0973 (   617 PWs)   bands (ev):

   -10.8715 -10.5676   0.5523   1.4753   1.5268   2.2796   2.5460   2.5824
    14.6788  15.7415  16.1438  16.9141

     occupation numbers 
     1.0000   1.0000   1.0000   1.0000   1.0000   1.0000   1.0000   1.0000
     0.0000   0.0000   0.0000   0.0000

          k = 0.1254 0.5067 0.0973 (   624 PWs)   bands (ev):

    -7.3095  -7.0773  -4.3892  -4.2112   0.2263   0.3199   4.5585   5.6901
     9.6235  10.3734  16.5488  16.9935

     occupation numbers 
     1.0000   1.0000   1.0000   1.0000   1.0000   1.0000   1.0000   1.0000
     0.0000   0.0000   0.0000   0.0000

          k = 0.1254-0.3619 0.0973 (   624 PWs)   bands (ev):

    -9.4096  -9.1323  -1.3531  -1.2278   1.0024   1.0812   2.2794   3.8642
    12.6046  13.2584  16.2991  16.9333

     occupation numbers 
     1.0000   1.0000   1.0000   1.0000   1.0000   1.0000   1.0000   1.0000
     0.0000   0.0000   0.0000   0.0000

          k = 0.1254-0.0724 0.0973 (   603 PWs)   bands (ev):

   -11.6139 -11.2964  -0.3403   1.4425   3.2731   3.3298   3.9523   3.9945
    13.8371  16.0878  16.2421  17.5893

     occupation numbers 
     1.0000   1.0000   1.0000   1.0000   1.0000   1.0000   1.0000   1.0000
     0.0000   0.0000   0.0000   0.0000

          k = 0.3761 0.6514 0.0973 (   630 PWs)   bands (ev):

    -5.6643  -5.5496  -4.7568  -4.7073  -2.1052  -1.9889   6.2747   6.9131
     8.6651   8.8434  18.4939  18.6612

     occupation numbers 
     1.0000   1.0000   1.0000   1.0000   1.0000   1.0000   1.0004   0.9996
     0.0000   0.0000   0.0000   0.0000

          k = 0.3761-0.2171 0.0973 (   621 PWs)   bands (ev):

    -8.6915  -8.4278  -3.0734  -2.9057   1.6159   1.6800   3.0763   4.5353
    11.0733  12.0115  15.1986  15.5660

     occupation numbers 
     1.0000   1.0000   1.0000   1.0000   1.0000   1.0000   1.0000   1.0000
     0.0000   0.0000   0.0000   0.0000

     the Fermi energy is     7.1634 ev

!    total energy              =     -45.61230021 Ry
     estimated scf accuracy    <          1.1E-12 Ry
     smearing contrib. (-TS)   =       0.00041311 Ry
     internal energy E=F+TS    =     -45.61271333 Ry

     The total energy is F=E-TS. E is the sum of the following terms:
     one-electron contribution =      -6.91066915 Ry
     hartree contribution      =      11.77769494 Ry
     xc contribution           =     -14.07714010 Ry
     ewald contribution        =     -36.36141101 Ry
     Dispersion Correction     =      -0.04118800 Ry

     convergence has been achieved in  12 iterations

     Forces acting on atoms (cartesian axes, Ry/au):

     atom    1 type  1   force =    -0.00000000    0.00000000   -0.00000000
     atom    2 type  1   force =     0.00000000    0.00000000    0.00000000
     atom    3 type  1   force =     0.00000000    0.00000000   -0.00000000
     atom    4 type  1   force =     0.00000000    0.00000000    0.00000000
     The non-local contrib.  to forces
     atom    1 type  1   force =    -0.00000000    0.00000000   -0.00000000
     atom    2 type  1   force =    -0.00000000   -0.00000000    0.00000000
     atom    3 type  1   force =     0.00000000   -0.00000000    0.00000000
     atom    4 type  1   force =    -0.00000000    0.00000000   -0.00000000
     The ionic contribution  to forces
     atom    1 type  1   force =     0.00000857   -0.00000495    0.00000000
     atom    2 type  1   force =    -0.00000861    0.00000497    0.00000000
     atom    3 type  1   force =    -0.00000857    0.00000495   -0.00000000
     atom    4 type  1   force =     0.00000861   -0.00000497   -0.00000000
     The local contribution  to forces
     atom    1 type  1   force =     0.00000000   -0.00000000    0.00000000
     atom    2 type  1   force =    -0.00000799    0.00000461    0.00000000
     atom    3 type  1   force =     0.00000000   -0.00000000    0.00000000
     atom    4 type  1   force =     0.00000799   -0.00000461    0.00000000
     The core correction contribution to forces
     atom    1 type  1   force =     0.00000000    0.00000000    0.00000000
     atom    2 type  1   force =     0.00000000    0.00000000    0.00000000
     atom    3 type  1   force =     0.00000000    0.00000000    0.00000000
     atom    4 type  1   force =     0.00000000    0.00000000    0.00000000
     The Hubbard contrib.    to forces
     atom    1 type  1   force =     0.00000000    0.00000000    0.00000000
     atom    2 type  1   force =     0.00000000    0.00000000    0.00000000
     atom    3 type  1   force =     0.00000000    0.00000000    0.00000000
     atom    4 type  1   force =     0.00000000    0.00000000    0.00000000
     The SCF correction term to forces
     atom    1 type  1   force =    -0.00000000    0.00000000   -0.00000000
     atom    2 type  1   force =     0.00000000   -0.00000000   -0.00000000
     atom    3 type  1   force =     0.00000000   -0.00000000   -0.00000000
     atom    4 type  1   force =    -0.00000000    0.00000000   -0.00000000

     Dispersion contribution to forces:
     atom    1 type  1   force =     0.00000000   -0.00000000   -0.00000000
     atom    2 type  1   force =    -0.00000000    0.00000000   -0.00000000
     atom    3 type  1   force =    -0.00000000    0.00000000    0.00000000
     atom    4 type  1   force =     0.00000000   -0.00000000    0.00000000

     Total force =     0.000000     Total SCF correction =     0.000000

     Total Dispersion Force =     0.000000


     Computing stress (Cartesian axis) and pressure

          total   stress  (Ry/bohr**3)                   (kbar)     P=       -0.32
  -0.00000173  -0.00000000   0.00000000           -0.25       -0.00        0.00
  -0.00000000  -0.00000173   0.00000000           -0.00       -0.25        0.00
   0.00000000  -0.00000000  -0.00000298            0.00       -0.00       -0.44

     kinetic stress (kbar)  11253.08      0.00     -0.00
                                0.00  11253.08     -0.00
                               -0.00     -0.00  13051.28

     local   stress (kbar) -16738.04      0.01      0.00
                                0.01 -16738.03     -0.00
                                0.00     -0.00  24245.05

     nonloc. stress (kbar)   -482.49     -0.00      0.00
                               -0.00   -482.49      0.00
                                0.00      0.00   -482.76

     hartree stress (kbar)   6662.56     -0.00      0.00
                               -0.00   6662.56      0.00
                                0.00      0.00  -5585.40

     exc-cor stress (kbar)  -2844.83      0.00      0.00
                                0.00  -2844.83      0.00
                                0.00      0.00  -2939.97

     corecor stress (kbar)      0.00      0.00      0.00
                                0.00      0.00      0.00
                                0.00      0.00      0.00

     ewald   stress (kbar)   2167.01     -0.03     -0.00
                               -0.03   2166.98     -0.00
                               -0.00     -0.00 -28228.90

     hubbard stress (kbar)      0.00      0.00      0.00
                                0.00      0.00      0.00
                                0.00      0.00      0.00

     DFT-D   stress (kbar)    -17.52      0.00     -0.00
                                0.00    -17.52      0.00
                               -0.00      0.00    -59.74

     XDM     stress (kbar)      0.00      0.00      0.00
                                0.00      0.00      0.00
                                0.00      0.00      0.00

     dft-nl  stress (kbar)      0.00      0.00      0.00
                                0.00      0.00      0.00
                                0.00      0.00      0.00

     TS-vdW  stress (kbar)      0.00      0.00      0.00
                                0.00      0.00      0.00
                                0.00      0.00      0.00



     Writing output data file ./tmp/graphite.save/
 
     init_run     :      0.10s CPU      0.11s WALL (       2 calls)
     electrons    :      3.93s CPU      4.38s WALL (      10 calls)
     update_pot   :      0.17s CPU      0.18s WALL (       8 calls)
     forces       :      0.84s CPU      0.85s WALL (      10 calls)
     stress       :      1.20s CPU      1.21s WALL (      10 calls)

     Called by init_run:
     wfcinit      :      0.02s CPU      0.03s WALL (       2 calls)
     wfcinit:atom :      0.00s CPU      0.00s WALL (      12 calls)
     wfcinit:wfcr :      0.02s CPU      0.02s WALL (      12 calls)
     potinit      :      0.02s CPU      0.02s WALL (       2 calls)
     hinit0       :      0.04s CPU      0.05s WALL (       2 calls)

     Called by electrons:
     c_bands      :      2.16s CPU      2.47s WALL (      99 calls)
     sum_band     :      0.47s CPU      0.57s WALL (      99 calls)
     v_of_rho     :      0.22s CPU      0.24s WALL (     105 calls)
     v_h          :      0.01s CPU      0.01s WALL (     105 calls)
     v_xc         :      0.21s CPU      0.23s WALL (     105 calls)
     newd         :      0.09s CPU      0.10s WALL (     105 calls)
     mix_rho      :      0.03s CPU      0.03s WALL (      99 calls)

     Called by c_bands:
     init_us_2    :      0.02s CPU      0.03s WALL (    1320 calls)
     cegterg      :      2.09s CPU      2.39s WALL (     594 calls)

     Called by sum_band:
     sum_band:wei :      0.01s CPU      0.01s WALL (      99 calls)
     sum_band:loo :      0.33s CPU      0.42s WALL (      99 calls)
     sum_band:buf :      0.00s CPU      0.00s WALL (     594 calls)
     sum_band:ini :      0.01s CPU      0.01s WALL (     594 calls)
     sum_band:cal :      0.02s CPU      0.03s WALL (     594 calls)
     sum_band:bec :      0.00s CPU      0.00s WALL (     594 calls)
     addusdens    :      0.08s CPU      0.09s WALL (      99 calls)
     addusd:skk   :      0.00s CPU      0.00s WALL (      99 calls)
     addusd:dgemm :      0.02s CPU      0.02s WALL (      99 calls)
     addusd:qvan2 :      0.04s CPU      0.04s WALL (      99 calls)

     Called by *egterg:
     cdiaghg      :      0.24s CPU      0.27s WALL (    1820 calls)
     cegterg:over :      0.06s CPU      0.06s WALL (    1298 calls)
     cegterg:upda :      0.01s CPU      0.01s WALL (    1298 calls)
     cegterg:last :      0.02s CPU      0.02s WALL (    1130 calls)
     h_psi        :      1.68s CPU      1.93s WALL (    1904 calls)
     s_psi        :      0.02s CPU      0.02s WALL (    1904 calls)
     g_psi        :      0.01s CPU      0.01s WALL (    1298 calls)

     Called by h_psi:
     h_psi:calbec :      0.06s CPU      0.07s WALL (    1904 calls)
     vloc_psi     :      1.59s CPU      1.82s WALL (    1904 calls)
     add_vuspsi   :      0.02s CPU      0.02s WALL (    1904 calls)

     General routines
     calbec       :      0.09s CPU      0.10s WALL (    2798 calls)
     fft          :      0.17s CPU      0.19s WALL (    1437 calls)
     ffts         :      0.01s CPU      0.01s WALL (     204 calls)
     fftw         :      1.78s CPU      2.08s WALL (   44232 calls)
     interpolate  :      0.02s CPU      0.02s WALL (     105 calls)
 
     Parallel routines
     fft_scatt_xy :      0.13s CPU      0.14s WALL (   45873 calls)
     fft_scatt_yz :      0.98s CPU      1.15s WALL (   45873 calls)
 
     PWSCF        :      6.33s CPU      6.85s WALL

 
   This run was terminated on:  17:47: 7  16Apr2021            

=------------------------------------------------------------------------------=
   JOB DONE.
=------------------------------------------------------------------------------=
