
     Program PWSCF v.6.3 starts on 15Sep2019 at 10:23: 9 

     This program is part of the open-source Quantum ESPRESSO suite
     for quantum simulation of materials; please cite
         "P. Giannozzi et al., J. Phys.:Condens. Matter 21 395502 (2009);
         "P. Giannozzi et al., J. Phys.:Condens. Matter 29 465901 (2017);
          URL http://www.quantum-espresso.org", 
     in publications or presentations arising from this work. More details at
     http://www.quantum-espresso.org/quote

     Parallel version (MPI), running on     1 processors

     MPI processes distributed on     1 nodes
     Waiting for input...
     Reading input from standard input

     Current dimensions of program PWSCF are:
     Max number of different atomic species (ntypx) = 10
     Max number of k-points (npk) =  40000
     Max angular momentum in pseudopotentials (lmaxx) =  3
               file Fe.pbe-nd-rrkjus.UPF: wavefunction(s)  4S renormalized
               file Fe.pbe-nd-rrkjus.UPF: wavefunction(s)  4S renormalized

     Subspace diagonalization in iterative solution of the eigenvalue problem:
     a serial algorithm will be used


     G-vector sticks info
     --------------------
     sticks:   dense  smooth     PW     G-vecs:    dense   smooth      PW
     Sum         473     241     81                 7521     2721     515



     bravais-lattice index     =            1
     lattice parameter (alat)  =       5.4200  a.u.
     unit-cell volume          =     159.2201 (a.u.)^3
     number of atoms/cell      =            2
     number of atomic types    =            2
     number of electrons       =        16.00
     number of Kohn-Sham states=           12
     kinetic-energy cutoff     =      25.0000  Ry
     charge density cutoff     =     200.0000  Ry
     convergence threshold     =      1.0E-06
     mixing beta               =       0.7000
     number of iterations used =            8  plain     mixing
     Exchange-correlation      =  SLA  PW   PBE  PBE ( 1  4  3  4 0 0)

     celldm(1)=   5.420000  celldm(2)=   0.000000  celldm(3)=   0.000000
     celldm(4)=   0.000000  celldm(5)=   0.000000  celldm(6)=   0.000000

     crystal axes: (cart. coord. in units of alat)
               a(1) = (   1.000000   0.000000   0.000000 )  
               a(2) = (   0.000000   1.000000   0.000000 )  
               a(3) = (   0.000000   0.000000   1.000000 )  

     reciprocal axes: (cart. coord. in units 2 pi/alat)
               b(1) = (  1.000000  0.000000  0.000000 )  
               b(2) = (  0.000000  1.000000  0.000000 )  
               b(3) = (  0.000000  0.000000  1.000000 )  


     PseudoPot. # 1 for Fe read from file:
     /home/matic/test.QE-2019/pseudo/Fe.pbe-nd-rrkjus.UPF
     MD5 check sum: 398036227a04b607635f6f5e8dfd8242
     Pseudo is Ultrasoft + core correction, Zval =  8.0
     Generated by new atomic code, or converted to UPF format
     Using radial grid of  957 points,  6 beta functions with: 
                l(1) =   0
                l(2) =   0
                l(3) =   1
                l(4) =   1
                l(5) =   2
                l(6) =   2
     Q(r) pseudized with 0 coefficients 


     PseudoPot. # 2 for Fe read from file:
     /home/matic/test.QE-2019/pseudo/Fe.pbe-nd-rrkjus.UPF
     MD5 check sum: 398036227a04b607635f6f5e8dfd8242
     Pseudo is Ultrasoft + core correction, Zval =  8.0
     Generated by new atomic code, or converted to UPF format
     Using radial grid of  957 points,  6 beta functions with: 
                l(1) =   0
                l(2) =   0
                l(3) =   1
                l(4) =   1
                l(5) =   2
                l(6) =   2
     Q(r) pseudized with 0 coefficients 


     atomic species   valence    mass     pseudopotential
        Fe1            8.00     1.00000     Fe( 1.00)
        Fe2            8.00     1.00000     Fe( 1.00)

     Starting magnetic structure 
     atomic species   magnetization
        Fe1          0.600
        Fe2         -0.600

     48 Sym. Ops., with inversion, found



   Cartesian axes

     site n.     atom                  positions (alat units)
         1           Fe1 tau(   1) = (   0.0000000   0.0000000   0.0000000  )
         2           Fe2 tau(   2) = (   0.5000000   0.5000000   0.5000000  )

     number of k points=    20  Marzari-Vanderbilt smearing, width (Ry)=  0.0100
                       cart. coord. in units 2pi/alat
        k(    1) = (   0.0625000   0.0625000   0.0625000), wk =   0.0156250
        k(    2) = (   0.0625000   0.0625000   0.1875000), wk =   0.0468750
        k(    3) = (   0.0625000   0.0625000   0.3125000), wk =   0.0468750
        k(    4) = (   0.0625000   0.0625000   0.4375000), wk =   0.0468750
        k(    5) = (   0.0625000   0.1875000   0.1875000), wk =   0.0468750
        k(    6) = (   0.0625000   0.1875000   0.3125000), wk =   0.0937500
        k(    7) = (   0.0625000   0.1875000   0.4375000), wk =   0.0937500
        k(    8) = (   0.0625000   0.3125000   0.3125000), wk =   0.0468750
        k(    9) = (   0.0625000   0.3125000   0.4375000), wk =   0.0937500
        k(   10) = (   0.0625000   0.4375000   0.4375000), wk =   0.0468750
        k(   11) = (   0.1875000   0.1875000   0.1875000), wk =   0.0156250
        k(   12) = (   0.1875000   0.1875000   0.3125000), wk =   0.0468750
        k(   13) = (   0.1875000   0.1875000   0.4375000), wk =   0.0468750
        k(   14) = (   0.1875000   0.3125000   0.3125000), wk =   0.0468750
        k(   15) = (   0.1875000   0.3125000   0.4375000), wk =   0.0937500
        k(   16) = (   0.1875000   0.4375000   0.4375000), wk =   0.0468750
        k(   17) = (   0.3125000   0.3125000   0.3125000), wk =   0.0156250
        k(   18) = (   0.3125000   0.3125000   0.4375000), wk =   0.0468750
        k(   19) = (   0.3125000   0.4375000   0.4375000), wk =   0.0468750
        k(   20) = (   0.4375000   0.4375000   0.4375000), wk =   0.0156250

     Dense  grid:     7521 G-vectors     FFT dimensions: (  25,  25,  25)

     Smooth grid:     2721 G-vectors     FFT dimensions: (  18,  18,  18)

     Estimated max dynamical RAM per process >      33.53 MB
     Generating pointlists ...
     new r_m :   0.3572 (alat units)  1.9362 (a.u.) for type    1
     new r_m :   0.3572 (alat units)  1.9362 (a.u.) for type    2

     Check: negative/imaginary core charge=   -0.000022    0.000000

     Initial potential from superposition of free atoms

     starting charge   15.99873, renormalised to   16.00000
     Starting wfcs are   12 randomized atomic wfcs

     total cpu time spent up to now is        1.3 secs

     Self-consistent Calculation

     iteration #  1     ecut=    25.00 Ry     beta= 0.70
     Davidson diagonalization with overlap
     ethr =  1.00E-02,  avg # of iterations =  3.4

     total cpu time spent up to now is        2.6 secs

     total energy              =    -111.17910531 Ry
     Harris-Foulkes estimate   =    -111.68296340 Ry
     estimated scf accuracy    <       0.74413707 Ry

     total magnetization       =     0.00 Bohr mag/cell
     absolute magnetization    =     5.94 Bohr mag/cell

     iteration #  2     ecut=    25.00 Ry     beta= 0.70
     Davidson diagonalization with overlap
     ethr =  4.65E-03,  avg # of iterations =  3.0

     total cpu time spent up to now is        3.8 secs

     total energy              =    -111.34033696 Ry
     Harris-Foulkes estimate   =    -111.74052681 Ry
     estimated scf accuracy    <       0.86952872 Ry

     total magnetization       =    -0.01 Bohr mag/cell
     absolute magnetization    =     5.15 Bohr mag/cell

     iteration #  3     ecut=    25.00 Ry     beta= 0.70
     Davidson diagonalization with overlap
     ethr =  4.65E-03,  avg # of iterations =  2.0

     total cpu time spent up to now is        4.8 secs

     total energy              =    -111.51422801 Ry
     Harris-Foulkes estimate   =    -111.51132552 Ry
     estimated scf accuracy    <       0.00721224 Ry

     total magnetization       =     0.05 Bohr mag/cell
     absolute magnetization    =     5.28 Bohr mag/cell

     iteration #  4     ecut=    25.00 Ry     beta= 0.70
     Davidson diagonalization with overlap
     ethr =  4.51E-05,  avg # of iterations =  2.9

     total cpu time spent up to now is        6.1 secs

     total energy              =    -111.50801817 Ry
     Harris-Foulkes estimate   =    -111.53651330 Ry
     estimated scf accuracy    <       0.32305698 Ry

     total magnetization       =    -0.83 Bohr mag/cell
     absolute magnetization    =     4.82 Bohr mag/cell

     iteration #  5     ecut=    25.00 Ry     beta= 0.70
     Davidson diagonalization with overlap
     ethr =  4.51E-05,  avg # of iterations =  3.1

     total cpu time spent up to now is        7.4 secs

     total energy              =    -111.52280918 Ry
     Harris-Foulkes estimate   =    -111.52204510 Ry
     estimated scf accuracy    <       0.00132259 Ry

     total magnetization       =     0.01 Bohr mag/cell
     absolute magnetization    =     4.82 Bohr mag/cell

     iteration #  6     ecut=    25.00 Ry     beta= 0.70
     Davidson diagonalization with overlap
     ethr =  8.27E-06,  avg # of iterations =  2.7

     total cpu time spent up to now is        8.4 secs

     total energy              =    -111.52300825 Ry
     Harris-Foulkes estimate   =    -111.52404418 Ry
     estimated scf accuracy    <       0.00057187 Ry

     total magnetization       =     0.00 Bohr mag/cell
     absolute magnetization    =     4.56 Bohr mag/cell

     iteration #  7     ecut=    25.00 Ry     beta= 0.70
     Davidson diagonalization with overlap
     ethr =  3.57E-06,  avg # of iterations =  3.0

     total cpu time spent up to now is        9.7 secs

     total energy              =    -111.52503957 Ry
     Harris-Foulkes estimate   =    -111.52490530 Ry
     estimated scf accuracy    <       0.00012888 Ry

     total magnetization       =     0.03 Bohr mag/cell
     absolute magnetization    =     4.26 Bohr mag/cell

     iteration #  8     ecut=    25.00 Ry     beta= 0.70
     Davidson diagonalization with overlap
     ethr =  8.05E-07,  avg # of iterations =  2.3

     total cpu time spent up to now is       10.9 secs

     total energy              =    -111.52481543 Ry
     Harris-Foulkes estimate   =    -111.52509696 Ry
     estimated scf accuracy    <       0.00006162 Ry

     total magnetization       =     0.04 Bohr mag/cell
     absolute magnetization    =     4.29 Bohr mag/cell

     iteration #  9     ecut=    25.00 Ry     beta= 0.70
     Davidson diagonalization with overlap
     ethr =  3.85E-07,  avg # of iterations =  3.0

     total cpu time spent up to now is       12.1 secs

     total energy              =    -111.52524855 Ry
     Harris-Foulkes estimate   =    -111.52517435 Ry
     estimated scf accuracy    <       0.00001447 Ry

     total magnetization       =     0.06 Bohr mag/cell
     absolute magnetization    =     4.18 Bohr mag/cell

     iteration # 10     ecut=    25.00 Ry     beta= 0.70
     Davidson diagonalization with overlap
     ethr =  9.04E-08,  avg # of iterations =  2.0

     total cpu time spent up to now is       13.0 secs

     total energy              =    -111.52521301 Ry
     Harris-Foulkes estimate   =    -111.52525895 Ry
     estimated scf accuracy    <       0.00003191 Ry

     total magnetization       =     0.07 Bohr mag/cell
     absolute magnetization    =     4.16 Bohr mag/cell

     iteration # 11     ecut=    25.00 Ry     beta= 0.70
     Davidson diagonalization with overlap
     ethr =  9.04E-08,  avg # of iterations =  2.4

     total cpu time spent up to now is       14.3 secs

     total energy              =    -111.52519418 Ry
     Harris-Foulkes estimate   =    -111.52523862 Ry
     estimated scf accuracy    <       0.00003120 Ry

     total magnetization       =     0.04 Bohr mag/cell
     absolute magnetization    =     4.19 Bohr mag/cell

     iteration # 12     ecut=    25.00 Ry     beta= 0.70
     Davidson diagonalization with overlap
     ethr =  9.04E-08,  avg # of iterations =  2.9

     total cpu time spent up to now is       15.8 secs

     total energy              =    -111.52525203 Ry
     Harris-Foulkes estimate   =    -111.52525057 Ry
     estimated scf accuracy    <       0.00000203 Ry

     total magnetization       =     0.01 Bohr mag/cell
     absolute magnetization    =     4.15 Bohr mag/cell

     iteration # 13     ecut=    25.00 Ry     beta= 0.70
     Davidson diagonalization with overlap
     ethr =  1.27E-08,  avg # of iterations =  2.5

     total cpu time spent up to now is       17.2 secs

     total energy              =    -111.52525354 Ry
     Harris-Foulkes estimate   =    -111.52525670 Ry
     estimated scf accuracy    <       0.00000257 Ry

     total magnetization       =    -0.00 Bohr mag/cell
     absolute magnetization    =     4.15 Bohr mag/cell

     iteration # 14     ecut=    25.00 Ry     beta= 0.70
     Davidson diagonalization with overlap
     ethr =  1.27E-08,  avg # of iterations =  2.9

     Magnetic moment per site:
     atom:    1    charge:    6.4791    magn:    1.9885    constr:    0.0000
     atom:    2    charge:    6.4793    magn:   -1.9910    constr:    0.0000

     total cpu time spent up to now is       18.5 secs

     End of self-consistent calculation

 ------ SPIN UP ------------


          k = 0.0625 0.0625 0.0625 (   341 PWs)   bands (ev):

     5.0104   8.9829   8.9829  11.2164  11.2164  11.3579  13.3721  13.3721
    14.0200  14.2739  14.2739  22.4312

          k = 0.0625 0.0625 0.1875 (   336 PWs)   bands (ev):

     5.6240   9.2047   9.2077  11.1226  11.1533  11.4861  13.1503  13.4556
    13.5679  13.8214  14.2437  19.7821

          k = 0.0625 0.0625 0.3125 (   339 PWs)   bands (ev):

     6.7522   9.4407   9.5897  11.0631  11.0740  11.5800  12.7830  13.1407
    13.2672  13.5415  14.0499  17.0708

          k = 0.0625 0.0625 0.4375 (   336 PWs)   bands (ev):

     8.0945   9.2583   9.9457  10.9838  11.1294  11.5848  12.4609  12.9068
    12.9133  13.4307  13.8456  15.4937

          k = 0.0625 0.1875 0.1875 (   330 PWs)   bands (ev):

     6.2021   9.3464   9.4803  10.9339  11.0226  11.5078  13.1865  13.2767
    13.4224  13.5598  14.3031  19.9681

          k = 0.0625 0.1875 0.3125 (   335 PWs)   bands (ev):

     7.2341   9.4868   9.8670  10.7941  10.9246  11.3169  12.9718  13.0987
    13.3712  13.5673  14.2472  17.5638

          k = 0.0625 0.1875 0.4375 (   334 PWs)   bands (ev):

     8.3890   9.2664  10.1137  10.7321  11.0701  11.2082  12.6682  12.9405
    13.3088  13.8638  14.1271  15.6513

          k = 0.0625 0.3125 0.3125 (   335 PWs)   bands (ev):

     7.9818   9.3413  10.4430  10.5593  10.9122  10.9969  12.8358  13.4216
    13.4757  13.7742  14.3746  17.3645

          k = 0.0625 0.3125 0.4375 (   339 PWs)   bands (ev):

     8.6218   9.0458  10.4595  10.6137  10.8205  11.7135  12.6578  13.4234
    13.5547  14.2620  14.4133  15.7706

          k = 0.0625 0.4375 0.4375 (   338 PWs)   bands (ev):

     8.6881   8.8269  10.2935  10.3414  11.6888  12.3367  13.0109  13.3454
    13.7583  14.5314  14.6739  15.3490

          k = 0.1875 0.1875 0.1875 (   335 PWs)   bands (ev):

     6.7602   9.6182   9.6182  10.8076  10.8076  11.2076  13.3293  13.3293
    13.3337  13.8867  13.8867  20.9343

          k = 0.1875 0.1875 0.3125 (   336 PWs)   bands (ev):

     7.7314   9.8443   9.8469  10.6158  10.7012  10.9115  13.1277  13.2708
    13.4762  13.8006  14.1117  18.2717

          k = 0.1875 0.1875 0.4375 (   343 PWs)   bands (ev):

     8.7607   9.4968  10.0627  10.4359  10.7625  11.2370  12.8118  12.9204
    13.2921  14.1939  14.6157  16.1221

          k = 0.1875 0.3125 0.3125 (   332 PWs)   bands (ev):

     8.4878   9.7027  10.3441  10.5037  10.5085  10.6813  12.9396  13.2229
    13.6980  14.1817  14.3917  18.4510

          k = 0.1875 0.3125 0.4375 (   337 PWs)   bands (ev):

     9.0433   9.4373  10.2586  10.3865  10.6591  11.4321  12.6530  12.9550
    13.7291  14.3828  15.2711  16.7353

          k = 0.1875 0.4375 0.4375 (   334 PWs)   bands (ev):

     9.0321   9.2978  10.1724  10.1961  11.5525  11.8549  12.6285  12.6501
    13.9623  14.5949  16.0042  16.7725

          k = 0.3125 0.3125 0.3125 (   329 PWs)   bands (ev):

     9.2114  10.1629  10.1629  10.2091  10.4725  10.4725  12.8929  12.8929
    14.1174  14.1174  15.2509  20.0829

          k = 0.3125 0.3125 0.4375 (   332 PWs)   bands (ev):

     9.4490  10.0332  10.0568  10.2794  10.4437  11.2546  12.5153  12.7066
    14.1098  14.4576  16.3505  17.9850

          k = 0.3125 0.4375 0.4375 (   330 PWs)   bands (ev):

     9.4829   9.9845  10.0001  10.1574  11.2468  11.2885  12.2866  12.4966
    14.3221  14.6243  17.5489  18.6369

          k = 0.4375 0.4375 0.4375 (   326 PWs)   bands (ev):

     9.7535   9.8773   9.8773  11.0062  11.0062  11.0277  12.1996  12.1996
    14.6417  14.6417  19.1629  20.7629

 ------ SPIN DOWN ----------


          k = 0.0625 0.0625 0.0625 (   341 PWs)   bands (ev):

     5.0109   8.9820   8.9820  11.2123  11.2123  11.3536  13.3724  13.3724
    14.0183  14.2720  14.2720  22.4310

          k = 0.0625 0.0625 0.1875 (   336 PWs)   bands (ev):

     5.6245   9.2038   9.2067  11.1186  11.1492  11.4816  13.1507  13.4556
    13.5668  13.8198  14.2418  19.7820

          k = 0.0625 0.0625 0.3125 (   339 PWs)   bands (ev):

     6.7526   9.4401   9.5883  11.0590  11.0699  11.5754  12.7837  13.1397
    13.2660  13.5413  14.0483  17.0709

          k = 0.0625 0.0625 0.4375 (   336 PWs)   bands (ev):

     8.0945   9.2583   9.9438  10.9798  11.1253  11.5805  12.4618  12.9052
    12.9123  13.4295  13.8444  15.4944

          k = 0.0625 0.1875 0.1875 (   330 PWs)   bands (ev):

     6.2026   9.3453   9.4793  10.9301  11.0187  11.5031  13.1863  13.2761
    13.4227  13.5585  14.3011  19.9681

          k = 0.0625 0.1875 0.3125 (   335 PWs)   bands (ev):

     7.2344   9.4857   9.8659  10.7904  10.9211  11.3126  12.9707  13.0989
    13.3700  13.5672  14.2453  17.5638

          k = 0.0625 0.1875 0.4375 (   334 PWs)   bands (ev):

     8.3887   9.2656  10.1119  10.7284  11.0666  11.2057  12.6667  12.9407
    13.3074  13.8625  14.1256  15.6518

          k = 0.0625 0.3125 0.3125 (   335 PWs)   bands (ev):

     7.9816   9.3398  10.4416  10.5559  10.9084  10.9943  12.8347  13.4218
    13.4758  13.7725  14.3727  17.3647

          k = 0.0625 0.3125 0.4375 (   339 PWs)   bands (ev):

     8.6209   9.0444  10.4560  10.6103  10.8188  11.7125  12.6565  13.4233
    13.5541  14.2601  14.4120  15.7709

          k = 0.0625 0.4375 0.4375 (   338 PWs)   bands (ev):

     8.6865   8.8255  10.2901  10.3380  11.6868  12.3354  13.0103  13.3451
    13.7582  14.5307  14.6720  15.3489

          k = 0.1875 0.1875 0.1875 (   335 PWs)   bands (ev):

     6.7606   9.6171   9.6171  10.8039  10.8039  11.2035  13.3294  13.3294
    13.3324  13.8852  13.8852  20.9341

          k = 0.1875 0.1875 0.3125 (   336 PWs)   bands (ev):

     7.7316   9.8429   9.8457  10.6124  10.6978  10.9081  13.1270  13.2698
    13.4758  13.7991  14.1107  18.2714

          k = 0.1875 0.1875 0.4375 (   343 PWs)   bands (ev):

     8.7603   9.4956  10.0609  10.4327  10.7589  11.2352  12.8100  12.9193
    13.2924  14.1926  14.6147  16.1218

          k = 0.1875 0.3125 0.3125 (   332 PWs)   bands (ev):

     8.4875   9.7010  10.3414  10.5003  10.5064  10.6790  12.9383  13.2220
    13.6981  14.1812  14.3898  18.4507

          k = 0.1875 0.3125 0.4375 (   337 PWs)   bands (ev):

     9.0419   9.4359  10.2553  10.3833  10.6573  11.4312  12.6514  12.9536
    13.7294  14.3826  15.2697  16.7347

          k = 0.1875 0.4375 0.4375 (   334 PWs)   bands (ev):

     9.0299   9.2966  10.1690  10.1927  11.5509  11.8541  12.6272  12.6485
    13.9625  14.5956  16.0028  16.7718

          k = 0.3125 0.3125 0.3125 (   329 PWs)   bands (ev):

     9.2103  10.1598  10.1598  10.2071  10.4709  10.4709  12.8915  12.8915
    14.1177  14.1177  15.2490  20.0826

          k = 0.3125 0.3125 0.4375 (   332 PWs)   bands (ev):

     9.4465  10.0300  10.0547  10.2772  10.4422  11.2539  12.5134  12.7050
    14.1103  14.4581  16.3491  17.9843

          k = 0.3125 0.4375 0.4375 (   330 PWs)   bands (ev):

     9.4800   9.9813   9.9968  10.1561  11.2457  11.2878  12.2847  12.4948
    14.3227  14.6253  17.5478  18.6362

          k = 0.4375 0.4375 0.4375 (   326 PWs)   bands (ev):

     9.7502   9.8740   9.8740  11.0053  11.0053  11.0271  12.1974  12.1974
    14.6427  14.6427  19.1621  20.7625

     the Fermi energy is    13.3493 ev

!    total energy              =    -111.52525896 Ry
     Harris-Foulkes estimate   =    -111.52525870 Ry
     estimated scf accuracy    <       0.00000048 Ry

     The total energy is the sum of the following terms:

     one-electron contribution =      13.82975210 Ry
     hartree contribution      =      13.32676402 Ry
     xc contribution           =     -52.73589054 Ry
     ewald contribution        =     -85.94499662 Ry
     smearing contrib. (-TS)   =      -0.00088792 Ry

     total magnetization       =    -0.00 Bohr mag/cell
     absolute magnetization    =     4.13 Bohr mag/cell

     convergence has been achieved in  14 iterations

     Writing output data file fe.save/

     init_run     :      1.41s CPU      1.15s WALL (       1 calls)
     electrons    :     31.48s CPU     17.15s WALL (       1 calls)

     Called by init_run:
     wfcinit      :      0.46s CPU      0.28s WALL (       1 calls)
     potinit      :      0.05s CPU      0.06s WALL (       1 calls)
     hinit0       :      0.81s CPU      0.74s WALL (       1 calls)

     Called by electrons:
     c_bands      :     21.74s CPU     12.06s WALL (      14 calls)
     sum_band     :      6.77s CPU      3.50s WALL (      14 calls)
     v_of_rho     :      1.41s CPU      0.77s WALL (      15 calls)
     newd         :      1.50s CPU      0.81s WALL (      15 calls)
     mix_rho      :      0.09s CPU      0.04s WALL (      14 calls)

     Called by c_bands:
     init_us_2    :      0.68s CPU      0.37s WALL (    1160 calls)
     cegterg      :     19.63s CPU     10.95s WALL (     560 calls)

     Called by sum_band:
     sum_band:bec :      0.02s CPU      0.01s WALL (     560 calls)
     addusdens    :      3.56s CPU      1.63s WALL (      14 calls)

     Called by *egterg:
     h_psi        :     15.55s CPU      8.62s WALL (    2116 calls)
     s_psi        :      0.43s CPU      0.29s WALL (    2116 calls)
     g_psi        :      0.22s CPU      0.11s WALL (    1516 calls)
     cdiaghg      :      2.45s CPU      1.43s WALL (    2076 calls)

     Called by h_psi:
     h_psi:pot    :     15.49s CPU      8.60s WALL (    2116 calls)
     h_psi:calbec :      0.54s CPU      0.36s WALL (    2116 calls)
     vloc_psi     :     13.86s CPU      7.43s WALL (    2116 calls)
     add_vuspsi   :      1.06s CPU      0.80s WALL (    2116 calls)

     General routines
     calbec       :      0.65s CPU      0.42s WALL (    2676 calls)
     fft          :      0.14s CPU      0.09s WALL (     371 calls)
     ffts         :      0.02s CPU      0.02s WALL (      58 calls)
     fftw         :     15.04s CPU      8.18s WALL (   43750 calls)
     interpolate  :      0.03s CPU      0.02s WALL (      30 calls)

     Parallel routines

     PWSCF        :    33.10s CPU        18.51s WALL


   This run was terminated on:  10:23:27  15Sep2019            

=------------------------------------------------------------------------------=
   JOB DONE.
=------------------------------------------------------------------------------=
