 ANIMSTEPS   8
 CRYSTAL 
 PRIMVEC 
  5.7070703841  0.0000000000  0.0000000000
  0.0000000000  2.8535351921  0.0000000000
  0.0000000000  0.0000000000  7.1338379802
 PRIMCOORD   1
    6  1
Al    0.0000000000    0.0000000000    0.0000000000    0.0000000000    0.0000000000    0.0000000000
Al    2.8535351921    0.0000000000    0.0000000000   -0.0000000000    0.0000000000    0.0000000000
Al    1.4267675960    1.4267675960    2.2977728251    0.0000000000    0.0000000000   -0.0000123972
Al    4.2803027881    1.4267675960    2.2937703083    0.0000000000    0.0000000000    0.0000570883
 H    1.0440652158    1.4267675960    4.7371108381   -0.0008186773    0.0000000000   -0.0000662320
 H    1.8094699763    1.4267675960    4.7371108381    0.0008186773    0.0000000000   -0.0000662320
 PRIMCOORD   2
    6  1
Al    0.0000000000    0.0000000000    0.0000000000    0.0000000000    0.0000000000   -0.0000000000
Al    2.8535351921    0.0000000000    0.0000000000   -0.0000000000    0.0000000000   -0.0000000000
Al    1.4267709247    1.4267675960    2.2202643229    0.0000000000    0.0000000000   -0.0033580492
Al    4.2802994594    1.4267675960    2.3076280065    0.0000000000    0.0000000000    0.0027185692
 H    1.0404856227    1.4267675960    4.3679632144    0.0010779620    0.0000000000    0.0122538020
 H    1.8130495694    1.4267675960    4.3679711835   -0.0010779620    0.0000000000    0.0122538020
 PRIMCOORD   3
    6  1
Al    0.0000000000    0.0000000000    0.0000000000    0.0000000000    0.0000000000   -0.0000000000
Al    2.8535351921    0.0000000000    0.0000000000   -0.0000000000    0.0000000000   -0.0000000000
Al    1.4267786852    1.4267675960    2.1513134222    0.0000000000    0.0000000000   -0.0198581979
Al    4.2802916990    1.4267675960    2.3106993940    0.0000000000    0.0000000000    0.0022810724
 H    1.0126775792    1.4267675960    4.0335635910    0.0302964245    0.0000000000    0.0225886131
 H    1.8408576129    1.4267675960    4.0335901391   -0.0302964245    0.0000000000    0.0225886131
 PRIMCOORD   4
    6  1
Al    0.0000000000    0.0000000000    0.0000000000   -0.0000000000    0.0000000000    0.0000000000
Al    2.8535351921    0.0000000000    0.0000000000    0.0000000000    0.0000000000    0.0000000000
Al    1.4267811150    1.4267675960    2.2572654756    0.0000000000    0.0000000000   -0.0063570330
Al    4.2802892692    1.4267675960    2.3108548390    0.0000000000    0.0000000000    0.0059476660
 H    0.7862789380    1.4267675960    3.8463349284    0.0062075167    0.0000000000   -0.0005082570
 H    2.0672562541    1.4267675960    3.8463672937   -0.0062075167    0.0000000000   -0.0005082570
 PRIMCOORD   5
    6  1
Al    0.0000000000    0.0000000000    0.0000000000   -0.0000000000    0.0000000000    0.0000000000
Al    2.8535351921    0.0000000000    0.0000000000    0.0000000000    0.0000000000    0.0000000000
Al    1.4267816607    1.4267675960    2.3043866221    0.0000000000    0.0000000000    0.0058539762
Al    4.2802887234    1.4267675960    2.3418911172    0.0000000000    0.0000000000    0.0108302618
 H    0.6035646362    1.4267675960    3.7701698975   -0.0328331878    0.0000000000   -0.0158324984
 H    2.2499705559    1.4267675960    3.7702035693    0.0328331878    0.0000000000   -0.0158324984
 PRIMCOORD   6
    6  1
Al    0.0000000000    0.0000000000    0.0000000000    0.0000000000    0.0000000000    0.0000000000
Al    2.8535351921    0.0000000000    0.0000000000   -0.0000000000    0.0000000000    0.0000000000
Al    1.4267831358    1.4267675960    2.3158251985    0.0000000000    0.0000000000    0.0017357735
Al    4.2802872483    1.4267675960    2.3900233635    0.0000000000    0.0000000000    0.0120803826
 H    0.4080948088    1.4267675960    3.6561592541   -0.0348899595    0.0000000000   -0.0202861163
 H    2.4454403833    1.4267675960    3.6561964574    0.0348899595   -0.0000000000   -0.0202861163
 PRIMCOORD   7
    6  1
Al    0.0000000000    0.0000000000    0.0000000000    0.0000000000    0.0000000000    0.0000000000
Al    2.8535351921    0.0000000000    0.0000000000   -0.0000000000    0.0000000000    0.0000000000
Al    1.4267883464    1.4267675960    2.2581866930    0.0000000000    0.0000000000   -0.0043985419
Al    4.2802823858    1.4267675960    2.3920691619    0.0000000000    0.0000000000    0.0069255271
 H    0.1905778942    1.4267675960    3.4667274306   -0.0187039289    0.0000000000   -0.0135136180
 H    2.6629571680    1.4267675960    3.4667815440    0.0187039289    0.0000000000   -0.0135136180
 PRIMCOORD   8
    6  1
Al    0.0000000000    0.0000000000    0.0000000000    0.0000000000    0.0000000000   -0.0000000000
Al    2.8535351921    0.0000000000    0.0000000000    0.0000000000    0.0000000000   -0.0000000000
Al    1.4268093490    1.4267675960    2.1875323998   -0.0000115968    0.0000000000    0.0000081570
Al    4.2802610352    1.4267675960    2.1875323998    0.0000115968    0.0000000000    0.0000081570
 H    0.0000000000    1.4267675960    3.2466430797    0.0000000000    0.0000000000    0.0000180682
 H    2.8535351921    1.4267675960    3.2467430390    0.0000000000    0.0000000000    0.0000139201
