### Running on host: qe2021

     Program NEB v.6.7MaX starts on 26Apr2021 at 19:24: 4 

     This program is part of the open-source Quantum ESPRESSO suite
     for quantum simulation of materials; please cite
         "P. Giannozzi et al., J. Phys.:Condens. Matter 21 395502 (2009);
         "P. Giannozzi et al., J. Phys.:Condens. Matter 29 465901 (2017);
          URL http://www.quantum-espresso.org", 
     in publications or presentations arising from this work. More details at
     http://www.quantum-espresso.org/quote

     Parallel version (MPI), running on     2 processors

     MPI processes distributed on     1 nodes
     R & G space division:  proc/nbgrp/npool/nimage =       2

     parsing_file_name: neb.noCI.in
     Reading input from pw_1.in
     file Al.pbe-n-kjpaw_psl.1.0.0.UPF: wavefunction(s)  3S 3P renormalized
     file H.pbe-rrkjus.UPF: wavefunction(s)  1S renormalized
     Reading input from pw_2.in
     file Al.pbe-n-kjpaw_psl.1.0.0.UPF: wavefunction(s)  3S 3P renormalized
     file H.pbe-rrkjus.UPF: wavefunction(s)  1S renormalized
     Reading input from pw_3.in
     file Al.pbe-n-kjpaw_psl.1.0.0.UPF: wavefunction(s)  3S 3P renormalized
     file H.pbe-rrkjus.UPF: wavefunction(s)  1S renormalized

     initial path length           =  5.2470 bohr
     initial inter-image distance  =  0.7496 bohr

     string_method                 =    neb
     restart_mode                  =    from_scratch
     opt_scheme                    =    quick-min
     num_of_images                 =    8
     nstep_path                    =    100
     CI_scheme                     =    no-CI
     first_last_opt                =    F
     use_freezing                  =    T
     ds                            =    1.0000 a.u.
     k_max                         =    0.3000 a.u.
     k_min                         =    0.2000 a.u.
     suggested k_max               =    0.6169 a.u.
     suggested k_min               =    0.4112 a.u.
     path_thr                      =    0.8000 eV / A

     ------------------------------ iteration   1 ------------------------------

     tcpu =      0.4    self-consistency for image   1
     tcpu =     10.5    self-consistency for image   2
     tcpu =     20.0    self-consistency for image   3
     tcpu =     30.5    self-consistency for image   4
     tcpu =     41.3    self-consistency for image   5
     tcpu =     50.8    self-consistency for image   6
     tcpu =     60.0    self-consistency for image   7
     tcpu =     69.3    self-consistency for image   8

     activation energy (->) =   1.111516 eV
     activation energy (<-) =   1.364264 eV

     image        energy (eV)        error (eV/A)        frozen

         1      -2178.8704396            0.022277            T
         2      -2178.7935367            0.252233            T
         3      -2178.5226411            1.002786            F
         4      -2177.7589235            0.929753            F
         5      -2177.7778142            0.962796            F
         6      -2178.3487507            0.865546            F
         7      -2178.8810686            0.754846            T
         8      -2179.1231876            0.000492            T

     path length          =  5.247 bohr
     inter-image distance =  0.750 bohr

     ------------------------------ iteration   2 ------------------------------

     tcpu =     79.5    self-consistency for image   3
     tcpu =     87.2    self-consistency for image   4
     tcpu =     94.0    self-consistency for image   5
     tcpu =    103.4    self-consistency for image   6

     activation energy (->) =   1.106029 eV
     activation energy (<-) =   1.358777 eV

     image        energy (eV)        error (eV/A)        frozen

         1      -2178.8704396            0.022277            T
         2      -2178.7935367            0.267766            T
         3      -2178.5411031            0.827706            F
         4      -2177.7644106            0.825077            F
         5      -2177.7857107            0.806719            F
         6      -2178.3475864            0.782581            T
         7      -2178.8810686            0.794326            T
         8      -2179.1231876            0.000492            T

     path length          =  5.227 bohr
     inter-image distance =  0.747 bohr

     ------------------------------ iteration   3 ------------------------------

     tcpu =    111.1    self-consistency for image   3
     tcpu =    119.2    self-consistency for image   4
     tcpu =    126.1    self-consistency for image   5

     activation energy (->) =   1.095845 eV
     activation energy (<-) =   1.348593 eV

     image        energy (eV)        error (eV/A)        frozen

         1      -2178.8704396            0.022277            T
         2      -2178.7935367            0.300649            T
         3      -2178.5383766            0.595844            T
         4      -2177.7745948            0.637978            T
         5      -2177.7965262            0.516485            T
         6      -2178.3475864            0.876515            F
         7      -2178.8810686            0.794808            T
         8      -2179.1231876            0.000492            T

     path length          =  5.214 bohr
     inter-image distance =  0.745 bohr

     ------------------------------ iteration   4 ------------------------------

     tcpu =    135.6    self-consistency for image   6

     activation energy (->) =   1.095845 eV
     activation energy (<-) =   1.348593 eV

     image        energy (eV)        error (eV/A)        frozen

         1      -2178.8704396            0.022277            T
         2      -2178.7935367            0.300649            T
         3      -2178.5383766            0.595844            T
         4      -2177.7745948            0.637978            T
         5      -2177.7965262            0.513741            T
         6      -2178.3476650            0.760721            T
         7      -2178.8810686            0.835659            F
         8      -2179.1231876            0.000492            T

     path length          =  5.215 bohr
     inter-image distance =  0.745 bohr

     ------------------------------ iteration   5 ------------------------------

     tcpu =    143.2    self-consistency for image   7

     activation energy (->) =   1.095845 eV
     activation energy (<-) =   1.348593 eV

     image        energy (eV)        error (eV/A)        frozen

         1      -2178.8704396            0.022277            T
         2      -2178.7935367            0.300649            T
         3      -2178.5383766            0.595844            T
         4      -2177.7745948            0.637978            T
         5      -2177.7965262            0.513741            T
         6      -2178.3476650            0.765679            T
         7      -2178.8802088            0.764309            T
         8      -2179.1231876            0.000492            T

     path length          =  5.214 bohr
     inter-image distance =  0.745 bohr

     ---------------------------------------------------------------------------


     neb: convergence achieved in   5 iterations

     NEB          :   2m27.79s CPU   2m31.91s WALL


   This run was terminated on:  19:26:35  26Apr2021            

=------------------------------------------------------------------------------=
   JOB DONE.
=------------------------------------------------------------------------------=
