### Running on host: assam

     Program PWSCF v.6.4.1 starts on 14Sep2019 at 14: 0:33 

     This program is part of the open-source Quantum ESPRESSO suite
     for quantum simulation of materials; please cite
         "P. Giannozzi et al., J. Phys.:Condens. Matter 21 395502 (2009);
         "P. Giannozzi et al., J. Phys.:Condens. Matter 29 465901 (2017);
          URL http://www.quantum-espresso.org", 
     in publications or presentations arising from this work. More details at
     http://www.quantum-espresso.org/quote

     Parallel version (MPI), running on     2 processors

     MPI processes distributed on     1 nodes
     R & G space division:  proc/nbgrp/npool/nimage =       2
     Reading input from pw.Si.scf.in

     Current dimensions of program PWSCF are:
     Max number of different atomic species (ntypx) = 10
     Max number of k-points (npk) =  40000
     Max angular momentum in pseudopotentials (lmaxx) =  3

     Subspace diagonalization in iterative solution of the eigenvalue problem:
     a serial algorithm will be used


     Parallelization info
     --------------------
     sticks:   dense  smooth     PW     G-vecs:    dense   smooth      PW
     Min          81      81     30                  728      728     165
     Max          82      82     31                  731      731     166
     Sum         163     163     61                 1459     1459     331



     bravais-lattice index     =            2
     lattice parameter (alat)  =      10.2000  a.u.
     unit-cell volume          =     265.3020 (a.u.)^3
     number of atoms/cell      =            2
     number of atomic types    =            1
     number of electrons       =         8.00
     number of Kohn-Sham states=            4
     kinetic-energy cutoff     =      12.0000  Ry
     charge density cutoff     =      48.0000  Ry
     convergence threshold     =      1.0E-06
     mixing beta               =       0.7000
     number of iterations used =            8  plain     mixing
     Exchange-correlation      =  SLA  PZ   NOGX NOGC ( 1  1  0  0 0 0)

     celldm(1)=  10.200000  celldm(2)=   0.000000  celldm(3)=   0.000000
     celldm(4)=   0.000000  celldm(5)=   0.000000  celldm(6)=   0.000000

     crystal axes: (cart. coord. in units of alat)
               a(1) = (  -0.500000   0.000000   0.500000 )  
               a(2) = (   0.000000   0.500000   0.500000 )  
               a(3) = (  -0.500000   0.500000   0.000000 )  

     reciprocal axes: (cart. coord. in units 2 pi/alat)
               b(1) = ( -1.000000 -1.000000  1.000000 )  
               b(2) = (  1.000000  1.000000  1.000000 )  
               b(3) = ( -1.000000  1.000000 -1.000000 )  


     PseudoPot. # 1 for Si read from file:
     /home/matic/pw/pseudo/Si.pz-vbc.UPF
     MD5 check sum: 6dfa03ddd5817404712e03e4d12deb78
     Pseudo is Norm-conserving, Zval =  4.0
     Generated by new atomic code, or converted to UPF format
     Using radial grid of  431 points,  2 beta functions with: 
                l(1) =   0
                l(2) =   1

     atomic species   valence    mass     pseudopotential
        Si             4.00    28.08600     Si( 1.00)

     48 Sym. Ops., with inversion, found (24 have fractional translation)



   Cartesian axes

     site n.     atom                  positions (alat units)
         1           Si  tau(   1) = (   0.0000000   0.0000000   0.0000000  )
         2           Si  tau(   2) = (   0.2500000   0.2500000   0.2500000  )

     number of k points=    10
                       cart. coord. in units 2pi/alat
        k(    1) = (  -0.1250000   0.1250000   0.1250000), wk =   0.0625000
        k(    2) = (  -0.3750000   0.3750000  -0.1250000), wk =   0.1875000
        k(    3) = (   0.3750000  -0.3750000   0.6250000), wk =   0.1875000
        k(    4) = (   0.1250000  -0.1250000   0.3750000), wk =   0.1875000
        k(    5) = (  -0.1250000   0.6250000   0.1250000), wk =   0.1875000
        k(    6) = (   0.6250000  -0.1250000   0.8750000), wk =   0.3750000
        k(    7) = (   0.3750000   0.1250000   0.6250000), wk =   0.3750000
        k(    8) = (  -0.1250000  -0.8750000   0.1250000), wk =   0.1875000
        k(    9) = (  -0.3750000   0.3750000   0.3750000), wk =   0.0625000
        k(   10) = (   0.3750000  -0.3750000   1.1250000), wk =   0.1875000

     Dense  grid:     1459 G-vectors     FFT dimensions: (  16,  16,  16)

     Estimated max dynamical RAM per process >       0.65 MB

     Estimated total dynamical RAM >       1.30 MB

     Initial potential from superposition of free atoms

     starting charge    7.99901, renormalised to    8.00000
     Starting wfcs are    8 randomized atomic wfcs

     total cpu time spent up to now is        0.0 secs

     Self-consistent Calculation

     iteration #  1     ecut=    12.00 Ry     beta= 0.70
     Davidson diagonalization with overlap
     ethr =  1.00E-02,  avg # of iterations =  2.0

     Threshold (ethr) on eigenvalues was too large:
     Diagonalizing with lowered threshold

     Davidson diagonalization with overlap
     ethr =  7.38E-04,  avg # of iterations =  1.0

     total cpu time spent up to now is        0.1 secs

     total energy              =     -15.80393356 Ry
     Harris-Foulkes estimate   =     -15.82350258 Ry
     estimated scf accuracy    <       0.05914730 Ry

     iteration #  2     ecut=    12.00 Ry     beta= 0.70
     Davidson diagonalization with overlap
     ethr =  7.39E-04,  avg # of iterations =  1.0

     total cpu time spent up to now is        0.1 secs

     total energy              =     -15.80685850 Ry
     Harris-Foulkes estimate   =     -15.80714684 Ry
     estimated scf accuracy    <       0.00211545 Ry

     iteration #  3     ecut=    12.00 Ry     beta= 0.70
     Davidson diagonalization with overlap
     ethr =  2.64E-05,  avg # of iterations =  2.5

     total cpu time spent up to now is        0.1 secs

     total energy              =     -15.80729685 Ry
     Harris-Foulkes estimate   =     -15.80732341 Ry
     estimated scf accuracy    <       0.00006458 Ry

     iteration #  4     ecut=    12.00 Ry     beta= 0.70
     Davidson diagonalization with overlap
     ethr =  8.07E-07,  avg # of iterations =  2.2

     total cpu time spent up to now is        0.1 secs

     total energy              =     -15.80731123 Ry
     Harris-Foulkes estimate   =     -15.80731346 Ry
     estimated scf accuracy    <       0.00000538 Ry

     iteration #  5     ecut=    12.00 Ry     beta= 0.70
     Davidson diagonalization with overlap
     ethr =  6.72E-08,  avg # of iterations =  2.0

     total cpu time spent up to now is        0.1 secs

     End of self-consistent calculation

          k =-0.1250 0.1250 0.1250 (   172 PWs)   bands (ev):

    -5.4944   4.7095   5.9968   5.9968

          k =-0.3750 0.3750-0.1250 (   187 PWs)   bands (ev):

    -4.4486   1.6499   3.9193   5.4885

          k = 0.3750-0.3750 0.6250 (   182 PWs)   bands (ev):

    -3.2237  -0.5295   3.9674   4.6709

          k = 0.1250-0.1250 0.3750 (   180 PWs)   bands (ev):

    -4.9633   3.0927   4.9237   5.0334

          k =-0.1250 0.6250 0.1250 (   186 PWs)   bands (ev):

    -3.8988   1.3932   3.5389   4.0036

          k = 0.6250-0.1250 0.8750 (   189 PWs)   bands (ev):

    -2.1840  -0.6170   2.0915   3.2235

          k = 0.3750 0.1250 0.6250 (   188 PWs)   bands (ev):

    -3.4618   0.4411   2.8814   4.2932

          k =-0.1250-0.8750 0.1250 (   192 PWs)   bands (ev):

    -2.3761  -0.5110   2.7326   3.5170

          k =-0.3750 0.3750 0.3750 (   183 PWs)   bands (ev):

    -3.9800   0.2920   5.1660   5.1660

          k = 0.3750-0.3750 1.1250 (   184 PWs)   bands (ev):

    -2.7138  -0.3719   2.1828   4.3390

     highest occupied level (ev):     5.9968

!    total energy              =     -15.80731201 Ry
     Harris-Foulkes estimate   =     -15.80731203 Ry
     estimated scf accuracy    <       0.00000004 Ry

     The total energy is the sum of the following terms:

     one-electron contribution =       4.83140063 Ry
     hartree contribution      =       1.06661840 Ry
     xc contribution           =      -4.80557246 Ry
     ewald contribution        =     -16.89975858 Ry

     convergence has been achieved in   5 iterations

     Writing output data file silicon.save/

     init_run     :      0.02s CPU      0.02s WALL (       1 calls)
     electrons    :      0.07s CPU      0.09s WALL (       1 calls)

     Called by init_run:
     wfcinit      :      0.01s CPU      0.01s WALL (       1 calls)
     potinit      :      0.00s CPU      0.00s WALL (       1 calls)
     hinit0       :      0.01s CPU      0.01s WALL (       1 calls)

     Called by electrons:
     c_bands      :      0.05s CPU      0.07s WALL (       6 calls)
     sum_band     :      0.01s CPU      0.01s WALL (       6 calls)
     v_of_rho     :      0.00s CPU      0.00s WALL (       6 calls)
     mix_rho      :      0.00s CPU      0.00s WALL (       6 calls)

     Called by c_bands:
     init_us_2    :      0.00s CPU      0.00s WALL (     130 calls)
     cegterg      :      0.05s CPU      0.06s WALL (      60 calls)

     Called by sum_band:

     Called by *egterg:
     h_psi        :      0.04s CPU      0.06s WALL (     177 calls)
     g_psi        :      0.00s CPU      0.00s WALL (     107 calls)
     cdiaghg      :      0.01s CPU      0.01s WALL (     157 calls)

     Called by h_psi:
     h_psi:pot    :      0.04s CPU      0.06s WALL (     177 calls)
     h_psi:calbec :      0.00s CPU      0.00s WALL (     177 calls)
     vloc_psi     :      0.04s CPU      0.05s WALL (     177 calls)
     add_vuspsi   :      0.00s CPU      0.00s WALL (     177 calls)

     General routines
     calbec       :      0.00s CPU      0.00s WALL (     177 calls)
     fft          :      0.00s CPU      0.00s WALL (      18 calls)
     ffts         :      0.00s CPU      0.00s WALL (       6 calls)
     fftw         :      0.04s CPU      0.06s WALL (    1642 calls)

     Parallel routines
     fft_scatt_xy :      0.01s CPU      0.01s WALL (    1666 calls)
     fft_scatt_yz :      0.01s CPU      0.01s WALL (    1666 calls)

     PWSCF        :      0.10s CPU      0.13s WALL


   This run was terminated on:  14: 0:34  14Sep2019            

=------------------------------------------------------------------------------=
   JOB DONE.
=------------------------------------------------------------------------------=
