
     Program BANDS v.6.7GPU starts on 19Apr2021 at 14:41: 1 

     This program is part of the open-source Quantum ESPRESSO suite
     for quantum simulation of materials; please cite
         "P. Giannozzi et al., J. Phys.:Condens. Matter 21 395502 (2009);
         "P. Giannozzi et al., J. Phys.:Condens. Matter 29 465901 (2017);
         "P. Giannozzi et al., J. Chem. Phys. 152 154105 (2020);
          URL http://www.quantum-espresso.org", 
     in publications or presentations arising from this work. More details at
     http://www.quantum-espresso.org/quote

     Parallel version (MPI & OpenMP), running on       1 processor cores
     Number of MPI processes:                 1
     Threads/MPI process:                     1

     MPI processes distributed on     1 nodes

     Reading xml data from directory:

     ./tempdir/ni.save/

     IMPORTANT: XC functional enforced from input :
     Exchange-correlation= PBE
                           (   1   4   3   4   0   0   0)
     Any further DFT definition will be discarded
     Please, verify this is what you really want


     G-vector sticks info
     --------------------
     sticks:   dense  smooth     PW     G-vecs:    dense   smooth      PW
     Sum         559     271     91                 8441     2975     561

     Using Slab Decomposition


     Check: negative core charge=   -0.000008
     Reading collected, re-writing distributed wavefunctions
     high-symmetry point:  0.0000 0.0000 0.0000   x coordinate   0.0000
     high-symmetry point: -0.5000 0.5000 0.5000   x coordinate   0.8660
     high-symmetry point: -1.0000 0.5000 0.0000   x coordinate   1.5731
     high-symmetry point: -1.0000 0.0000 0.0000   x coordinate   2.0731
     high-symmetry point:  0.0000 0.0000 0.0000   x coordinate   3.0731
     high-symmetry point: -0.7500 0.7500 0.0000   x coordinate   4.1338

     Plottable bands (eV) written to file ni.spindown.band_data.gnu
     Bands written to file ni.spindown.band_data

 **************************************************************************

                    xk=(   0.00000,   0.00000,   0.00000  )

     point group O_h (m-3m) 
     there are 10 classes
     the character table:

       E     8C3   3C2   6C4   6C2'  i     8S6   3s_h  6S4   6s_d 
A_1g   1.00  1.00  1.00  1.00  1.00  1.00  1.00  1.00  1.00  1.00
A_2g   1.00  1.00  1.00 -1.00 -1.00  1.00  1.00  1.00 -1.00 -1.00
E_g    2.00 -1.00  2.00  0.00  0.00  2.00 -1.00  2.00  0.00  0.00
T_1g   3.00  0.00 -1.00  1.00 -1.00  3.00  0.00 -1.00  1.00 -1.00
T_2g   3.00  0.00 -1.00 -1.00  1.00  3.00  0.00 -1.00 -1.00  1.00
A_1u   1.00  1.00  1.00  1.00  1.00 -1.00 -1.00 -1.00 -1.00 -1.00
A_2u   1.00  1.00  1.00 -1.00 -1.00 -1.00 -1.00 -1.00  1.00  1.00
E_u    2.00 -1.00  2.00  0.00  0.00 -2.00  1.00 -2.00  0.00  0.00
T_1u   3.00  0.00 -1.00  1.00 -1.00 -3.00  0.00  1.00 -1.00  1.00
T_2u   3.00  0.00 -1.00 -1.00  1.00 -3.00  0.00  1.00  1.00 -1.00

     the symmetry operations in each class and the name of the first element:

     E        1
                                                                 
     8C3     17   19   20   18   24   21   22   23
                                                                 
     3C2      2    4    3
                                                                 
     6C4      7    8   15   16   12   11
                                                                 
     6C2'     5    6   14   13   10    9
                                                                 
     i       25
                                                                 
     8S6     41   43   44   42   48   45   46   47
                                                                 
     3s_h    26   28   27
                                                                 
     6S4     31   32   39   40   36   35
                                                                 
     6s_d    29   30   38   37   34   33
                                                                 

     Band symmetry, O_h (m-3m)  point group:

     e(  1 -  1) =    -84.94748  eV     1   --> A_1g G_1   G_1+
     e(  2 -  4) =    -45.23164  eV     3   --> T_1u G_15  G_4-
     e(  5 -  5) =      8.69501  eV     1   --> A_1g G_1   G_1+
     e(  6 -  8) =     16.18768  eV     3   --> T_2g G_25' G_5+
     e(  9 - 10) =     17.24337  eV     2   --> E_g  G_12  G_3+

 **************************************************************************

 **************************************************************************

                    xk=(  -0.02500,   0.02500,   0.02500  )

     point group C_3v (3m)  
     there are  3 classes
     the character table:

       E     2C3   3s_v 
A_1    1.00  1.00  1.00
A_2    1.00  1.00 -1.00
E      2.00 -1.00  0.00

     the symmetry operations in each class and the name of the first element:

     E        1
                                                                 
     2C3      2    3
                                                                 
     3s_v     4    5    6
                                                                 

     Band symmetry, C_3v (3m)   point group:

     e(  1 -  1) =    -84.94727  eV     1   --> A_1  L_1       
     e(  2 -  2) =    -45.23304  eV     1   --> A_1  L_1       
     e(  3 -  4) =    -45.23184  eV     2   --> E    L_3       
     e(  5 -  5) =      8.71972  eV     1   --> A_1  L_1       
     e(  6 -  6) =     16.18024  eV     1   --> A_1  L_1       
     e(  7 -  8) =     16.19362  eV     2   --> E    L_3       
     e(  9 - 10) =     17.24066  eV     2   --> E    L_3       

 **************************************************************************

 **************************************************************************

                    xk=(  -0.05000,   0.05000,   0.05000  )

     Band symmetry, C_3v (3m)   point group:

     e(  1 -  1) =    -84.94664  eV     1   --> A_1  L_1       
     e(  2 -  2) =    -45.23722  eV     1   --> A_1  L_1       
     e(  3 -  4) =    -45.23244  eV     2   --> E    L_3       
     e(  5 -  5) =      8.79365  eV     1   --> A_1  L_1       
     e(  6 -  6) =     16.15820  eV     1   --> A_1  L_1       
     e(  7 -  8) =     16.21090  eV     2   --> E    L_3       
     e(  9 - 10) =     17.23285  eV     2   --> E    L_3       

 **************************************************************************

 **************************************************************************

                    xk=(  -0.07500,   0.07500,   0.07500  )

     Band symmetry, C_3v (3m)   point group:

     e(  1 -  1) =    -84.94561  eV     1   --> A_1  L_1       
     e(  2 -  2) =    -45.24406  eV     1   --> A_1  L_1       
     e(  3 -  4) =    -45.23342  eV     2   --> E    L_3       
     e(  5 -  5) =      8.91623  eV     1   --> A_1  L_1       
     e(  6 -  6) =     16.12282  eV     1   --> A_1  L_1       
     e(  7 -  8) =     16.23814  eV     2   --> E    L_3       
     e(  9 - 10) =     17.22160  eV     2   --> E    L_3       

 **************************************************************************

 **************************************************************************

                    xk=(  -0.10000,   0.10000,   0.10000  )

     Band symmetry, C_3v (3m)   point group:

     e(  1 -  1) =    -84.94419  eV     1   --> A_1  L_1       
     e(  2 -  2) =    -45.25339  eV     1   --> A_1  L_1       
     e(  3 -  4) =    -45.23476  eV     2   --> E    L_3       
     e(  5 -  5) =      9.08643  eV     1   --> A_1  L_1       
     e(  6 -  6) =     16.07590  eV     1   --> A_1  L_1       
     e(  7 -  8) =     16.27266  eV     2   --> E    L_3       
     e(  9 - 10) =     17.20941  eV     2   --> E    L_3       

 **************************************************************************

 **************************************************************************

                    xk=(  -0.12500,   0.12500,   0.12500  )

     Band symmetry, C_3v (3m)   point group:

     e(  1 -  1) =    -84.94244  eV     1   --> A_1  L_1       
     e(  2 -  2) =    -45.26498  eV     1   --> A_1  L_1       
     e(  3 -  4) =    -45.23642  eV     2   --> E    L_3       
     e(  5 -  5) =      9.30274  eV     1   --> A_1  L_1       
     e(  6 -  6) =     16.02001  eV     1   --> A_1  L_1       
     e(  7 -  8) =     16.31055  eV     2   --> E    L_3       
     e(  9 - 10) =     17.20017  eV     2   --> E    L_3       

 **************************************************************************

 **************************************************************************

                    xk=(  -0.15000,   0.15000,   0.15000  )

     Band symmetry, C_3v (3m)   point group:

     e(  1 -  1) =    -84.94038  eV     1   --> A_1  L_1       
     e(  2 -  2) =    -45.27853  eV     1   --> A_1  L_1       
     e(  3 -  4) =    -45.23836  eV     2   --> E    L_3       
     e(  5 -  5) =      9.56305  eV     1   --> A_1  L_1       
     e(  6 -  6) =     15.95842  eV     1   --> A_1  L_1       
     e(  7 -  8) =     16.34649  eV     2   --> E    L_3       
     e(  9 - 10) =     17.19900  eV     2   --> E    L_3       

 **************************************************************************

 **************************************************************************

                    xk=(  -0.17500,   0.17500,   0.17500  )

     Band symmetry, C_3v (3m)   point group:

     e(  1 -  1) =    -84.93807  eV     1   --> A_1  L_1       
     e(  2 -  2) =    -45.29371  eV     1   --> A_1  L_1       
     e(  3 -  4) =    -45.24053  eV     2   --> E    L_3       
     e(  5 -  5) =      9.86448  eV     1   --> A_1  L_1       
     e(  6 -  6) =     15.89511  eV     1   --> A_1  L_1       
     e(  7 -  8) =     16.37432  eV     2   --> E    L_3       
     e(  9 - 10) =     17.21173  eV     2   --> E    L_3       

 **************************************************************************

 **************************************************************************

                    xk=(  -0.20000,   0.20000,   0.20000  )

     Band symmetry, C_3v (3m)   point group:

     e(  1 -  1) =    -84.93557  eV     1   --> A_1  L_1       
     e(  2 -  2) =    -45.31013  eV     1   --> A_1  L_1       
     e(  3 -  4) =    -45.24289  eV     2   --> E    L_3       
     e(  5 -  5) =     10.20315  eV     1   --> A_1  L_1       
     e(  6 -  6) =     15.83486  eV     1   --> A_1  L_1       
     e(  7 -  8) =     16.38860  eV     2   --> E    L_3       
     e(  9 - 10) =     17.24331  eV     2   --> E    L_3       

 **************************************************************************

 **************************************************************************

                    xk=(  -0.22500,   0.22500,   0.22500  )

     Band symmetry, C_3v (3m)   point group:

     e(  1 -  1) =    -84.93294  eV     1   --> A_1  L_1       
     e(  2 -  2) =    -45.32738  eV     1   --> A_1  L_1       
     e(  3 -  4) =    -45.24537  eV     2   --> E    L_3       
     e(  5 -  5) =     10.57373  eV     1   --> A_1  L_1       
     e(  6 -  6) =     15.78349  eV     1   --> A_1  L_1       
     e(  7 -  8) =     16.38662  eV     2   --> E    L_3       
     e(  9 - 10) =     17.29575  eV     2   --> E    L_3       

 **************************************************************************

 **************************************************************************

                    xk=(  -0.25000,   0.25000,   0.25000  )

     Band symmetry, C_3v (3m)   point group:

     e(  1 -  1) =    -84.93024  eV     1   --> A_1  L_1       
     e(  2 -  2) =    -45.34505  eV     1   --> A_1  L_1       
     e(  3 -  4) =    -45.24791  eV     2   --> E    L_3       
     e(  5 -  5) =     10.96892  eV     1   --> A_1  L_1       
     e(  6 -  6) =     15.74802  eV     1   --> A_1  L_1       
     e(  7 -  8) =     16.36930  eV     2   --> E    L_3       
     e(  9 - 10) =     17.36717  eV     2   --> E    L_3       

 **************************************************************************

 **************************************************************************

                    xk=(  -0.27500,   0.27500,   0.27500  )

     Band symmetry, C_3v (3m)   point group:

     e(  1 -  1) =    -84.92754  eV     1   --> A_1  L_1       
     e(  2 -  2) =    -45.36269  eV     1   --> A_1  L_1       
     e(  3 -  4) =    -45.25045  eV     2   --> E    L_3       
     e(  5 -  5) =     11.37869  eV     1   --> A_1  L_1       
     e(  6 -  6) =     15.73782  eV     1   --> A_1  L_1       
     e(  7 -  8) =     16.34016  eV     2   --> E    L_3       
     e(  9 - 10) =     17.45296  eV     2   --> E    L_3       

 **************************************************************************

 **************************************************************************

                    xk=(  -0.30000,   0.30000,   0.30000  )

     Band symmetry, C_3v (3m)   point group:

     e(  1 -  1) =    -84.92491  eV     1   --> A_1  L_1       
     e(  2 -  2) =    -45.37986  eV     1   --> A_1  L_1       
     e(  3 -  4) =    -45.25293  eV     2   --> E    L_3       
     e(  5 -  5) =     11.78928  eV     1   --> A_1  L_1       
     e(  6 -  6) =     15.76430  eV     1   --> A_1  L_1       
     e(  7 -  8) =     16.30344  eV     2   --> E    L_3       
     e(  9 - 10) =     17.54737  eV     2   --> E    L_3       

 **************************************************************************

 **************************************************************************

                    xk=(  -0.32500,   0.32500,   0.32500  )

     Band symmetry, C_3v (3m)   point group:

     e(  1 -  1) =    -84.92240  eV     1   --> A_1  L_1       
     e(  2 -  2) =    -45.39615  eV     1   --> A_1  L_1       
     e(  3 -  4) =    -45.25528  eV     2   --> E    L_3       
     e(  5 -  5) =     12.18284  eV     1   --> A_1  L_1       
     e(  6 -  6) =     15.84140  eV     1   --> A_1  L_1       
     e(  7 -  8) =     16.26317  eV     2   --> E    L_3       
     e(  9 - 10) =     17.64481  eV     2   --> E    L_3       

 **************************************************************************

 **************************************************************************

                    xk=(  -0.35000,   0.35000,   0.35000  )

     Band symmetry, C_3v (3m)   point group:

     e(  1 -  1) =    -84.92009  eV     1   --> A_1  L_1       
     e(  2 -  2) =    -45.41118  eV     1   --> A_1  L_1       
     e(  3 -  4) =    -45.25745  eV     2   --> E    L_3       
     e(  5 -  5) =     12.53821  eV     1   --> A_1  L_1       
     e(  6 -  6) =     15.98327  eV     1   --> A_1  L_1       
     e(  7 -  8) =     16.22265  eV     2   --> E    L_3       
     e(  9 - 10) =     17.74014  eV     2   --> E    L_3       

 **************************************************************************

 **************************************************************************

                    xk=(  -0.37500,   0.37500,   0.37500  )

     Band symmetry, C_3v (3m)   point group:

     e(  1 -  1) =    -84.91803  eV     1   --> A_1  L_1       
     e(  2 -  2) =    -45.42456  eV     1   --> A_1  L_1       
     e(  3 -  4) =    -45.25939  eV     2   --> E    L_3       
     e(  5 -  5) =     12.83600  eV     1   --> A_1  L_1       
     e(  6 -  7) =     16.18451  eV     2   --> E    L_3       
     e(  8 -  8) =     16.19888  eV     1   --> A_1  L_1       
     e(  9 - 10) =     17.82891  eV     2   --> E    L_3       

 **************************************************************************

 **************************************************************************

                    xk=(  -0.40000,   0.40000,   0.40000  )

     Band symmetry, C_3v (3m)   point group:

     e(  1 -  1) =    -84.91627  eV     1   --> A_1  L_1       
     e(  2 -  2) =    -45.43597  eV     1   --> A_1  L_1       
     e(  3 -  4) =    -45.26104  eV     2   --> E    L_3       
     e(  5 -  5) =     13.06500  eV     1   --> A_1  L_1       
     e(  6 -  7) =     16.15078  eV     2   --> E    L_3       
     e(  8 -  8) =     16.48209  eV     1   --> A_1  L_1       
     e(  9 - 10) =     17.90713  eV     2   --> E    L_3       

 **************************************************************************

 **************************************************************************

                    xk=(  -0.42500,   0.42500,   0.42500  )

     Band symmetry, C_3v (3m)   point group:

     e(  1 -  1) =    -84.91485  eV     1   --> A_1  L_1       
     e(  2 -  2) =    -45.44515  eV     1   --> A_1  L_1       
     e(  3 -  4) =    -45.26237  eV     2   --> E    L_3       
     e(  5 -  5) =     13.22615  eV     1   --> A_1  L_1       
     e(  6 -  7) =     16.12303  eV     2   --> E    L_3       
     e(  8 -  8) =     16.80470  eV     1   --> A_1  L_1       
     e(  9 - 10) =     17.97159  eV     2   --> E    L_3       

 **************************************************************************

 **************************************************************************

                    xk=(  -0.45000,   0.45000,   0.45000  )

     Band symmetry, C_3v (3m)   point group:

     e(  1 -  1) =    -84.91381  eV     1   --> A_1  L_1       
     e(  2 -  2) =    -45.45186  eV     1   --> A_1  L_1       
     e(  3 -  4) =    -45.26335  eV     2   --> E    L_3       
     e(  5 -  5) =     13.32908  eV     1   --> A_1  L_1       
     e(  6 -  7) =     16.10243  eV     2   --> E    L_3       
     e(  8 -  8) =     17.11579  eV     1   --> A_1  L_1       
     e(  9 - 10) =     18.01963  eV     2   --> E    L_3       

 **************************************************************************

 **************************************************************************

                    xk=(  -0.47500,   0.47500,   0.47500  )

     Band symmetry, C_3v (3m)   point group:

     e(  1 -  1) =    -84.91318  eV     1   --> A_1  L_1       
     e(  2 -  2) =    -45.45596  eV     1   --> A_1  L_1       
     e(  3 -  4) =    -45.26394  eV     2   --> E    L_3       
     e(  5 -  5) =     13.38531  eV     1   --> A_1  L_1       
     e(  6 -  7) =     16.08976  eV     2   --> E    L_3       
     e(  8 -  8) =     17.34750  eV     1   --> A_1  L_1       
     e(  9 - 10) =     18.04926  eV     2   --> E    L_3       

 **************************************************************************

 **************************************************************************

                    xk=(  -0.50000,   0.50000,   0.50000  )

     point group D_3d (-3m) 
     there are  6 classes
     the character table:

       E     2C3   3C2'  i     2S6   3s_d 
A_1g   1.00  1.00  1.00  1.00  1.00  1.00
A_2g   1.00  1.00 -1.00  1.00  1.00 -1.00
E_g    2.00 -1.00  0.00  2.00 -1.00  0.00
A_1u   1.00  1.00  1.00 -1.00 -1.00 -1.00
A_2u   1.00  1.00 -1.00 -1.00 -1.00  1.00
E_u    2.00 -1.00  0.00 -2.00  1.00  0.00

     the symmetry operations in each class and the name of the first element:

     E        1
                                                                 
     2C3      5    6
                                                                 
     3C2'     2    4    3
                                                                 
     i        7
                                                                 
     2S6     11   12
                                                                 
     3s_d     8   10    9
                                                                 

     Band symmetry, D_3d (-3m)  point group:

     e(  1 -  1) =    -84.91297  eV     1   --> A_1g L_1       
     e(  2 -  2) =    -45.45733  eV     1   --> A_2u L_2'      
     e(  3 -  4) =    -45.26414  eV     2   --> E_u  L_3'      
     e(  5 -  5) =     13.40308  eV     1   --> A_1g L_1       
     e(  6 -  7) =     16.08550  eV     2   --> E_g  L_3       
     e(  8 -  8) =     17.43437  eV     1   --> A_2u L_2'      
     e(  9 - 10) =     18.05932  eV     2   --> E_g  L_3       

 **************************************************************************

 **************************************************************************

                    xk=(  -0.55000,   0.50000,   0.45000  )

     point group C_2  (2)   
     there are  2 classes
     the character table:

       E     C2   
A      1.00  1.00
B      1.00 -1.00

     the symmetry operations in each class and the name of the first element:

     E        1
                                                                 
     C2       2
                                                                 

     Band symmetry, C_2  (2)    point group:

     e(  1 -  1) =    -84.91269  eV     1   --> A              
     e(  2 -  2) =    -45.45599  eV     1   --> B              
     e(  3 -  3) =    -45.26701  eV     1   --> A              
     e(  4 -  4) =    -45.26492  eV     1   --> B              
     e(  5 -  5) =     13.44869  eV     1   --> A              
     e(  6 -  6) =     16.04277  eV     1   --> B              
     e(  7 -  7) =     16.11344  eV     1   --> A              
     e(  8 -  8) =     17.13095  eV     1   --> B              
     e(  9 -  9) =     18.05509  eV     1   --> A              
     e( 10 - 10) =     18.43880  eV     1   --> B              

 **************************************************************************

 **************************************************************************

                    xk=(  -0.60000,   0.50000,   0.40000  )

     Band symmetry, C_2  (2)    point group:

     e(  1 -  1) =    -84.91188  eV     1   --> A              
     e(  2 -  2) =    -45.45202  eV     1   --> B              
     e(  3 -  3) =    -45.27533  eV     1   --> A              
     e(  4 -  4) =    -45.26725  eV     1   --> B              
     e(  5 -  5) =     13.58182  eV     1   --> A              
     e(  6 -  6) =     15.91181  eV     1   --> B              
     e(  7 -  7) =     16.19654  eV     1   --> A              
     e(  8 -  8) =     16.72297  eV     1   --> B              
     e(  9 -  9) =     18.04295  eV     1   --> A              
     e( 10 - 10) =     19.08105  eV     1   --> B              

 **************************************************************************

 **************************************************************************

                    xk=(  -0.65000,   0.50000,   0.35000  )

     Band symmetry, C_2  (2)    point group:

     e(  1 -  1) =    -84.91062  eV     1   --> A              
     e(  2 -  2) =    -45.44562  eV     1   --> B              
     e(  3 -  3) =    -45.28826  eV     1   --> A              
     e(  4 -  4) =    -45.27110  eV     1   --> B              
     e(  5 -  5) =     13.79113  eV     1   --> A              
     e(  6 -  6) =     15.69487  eV     1   --> B              
     e(  7 -  7) =     16.33121  eV     1   --> A              
     e(  8 -  8) =     16.39286  eV     1   --> B              
     e(  9 -  9) =     18.02453  eV     1   --> A              
     e( 10 - 10) =     19.80930  eV     1   --> B              

 **************************************************************************

 **************************************************************************

                    xk=(  -0.70000,   0.50000,   0.30000  )

     Band symmetry, C_2  (2)    point group:

     e(  1 -  1) =    -84.90904  eV     1   --> A              
     e(  2 -  2) =    -45.43708  eV     1   --> B              
     e(  3 -  3) =    -45.30455  eV     1   --> A              
     e(  4 -  4) =    -45.27642  eV     1   --> B              
     e(  5 -  5) =     14.05815  eV     1   --> A              
     e(  6 -  6) =     15.42598  eV     1   --> B              
     e(  7 -  7) =     16.13858  eV     1   --> B              
     e(  8 -  8) =     16.50929  eV     1   --> A              
     e(  9 -  9) =     18.00390  eV     1   --> A              
     e( 10 - 10) =     20.60291  eV     1   --> B              

 **************************************************************************

 **************************************************************************

                    xk=(  -0.75000,   0.50000,   0.25000  )

     Band symmetry, C_2  (2)    point group:

     e(  1 -  1) =    -84.90728  eV     1   --> A              
     e(  2 -  2) =    -45.42684  eV     1   --> B              
     e(  3 -  3) =    -45.32258  eV     1   --> A              
     e(  4 -  4) =    -45.28309  eV     1   --> B              
     e(  5 -  5) =     14.35839  eV     1   --> A              
     e(  6 -  6) =     15.15608  eV     1   --> B              
     e(  7 -  7) =     15.92918  eV     1   --> B              
     e(  8 -  8) =     16.71330  eV     1   --> A              
     e(  9 -  9) =     17.99025  eV     1   --> A              
     e( 10 - 10) =     21.45530  eV     1   --> B              

 **************************************************************************

 **************************************************************************

                    xk=(  -0.80000,   0.50000,   0.20000  )

     Band symmetry, C_2  (2)    point group:

     e(  1 -  1) =    -84.90552  eV     1   --> A              
     e(  2 -  2) =    -45.41545  eV     1   --> B              
     e(  3 -  3) =    -45.34058  eV     1   --> A              
     e(  4 -  4) =    -45.29091  eV     1   --> B              
     e(  5 -  5) =     14.66397  eV     1   --> A              
     e(  6 -  6) =     14.91812  eV     1   --> B              
     e(  7 -  7) =     15.74898  eV     1   --> B              
     e(  8 -  8) =     16.91062  eV     1   --> A              
     e(  9 -  9) =     18.00115  eV     1   --> A              
     e( 10 - 10) =     22.36152  eV     1   --> B              

 **************************************************************************

 **************************************************************************

                    xk=(  -0.85000,   0.50000,   0.15000  )

     Band symmetry, C_2  (2)    point group:

     e(  1 -  1) =    -84.90393  eV     1   --> A              
     e(  2 -  2) =    -45.40367  eV     1   --> B              
     e(  3 -  3) =    -45.35679  eV     1   --> A              
     e(  4 -  4) =    -45.29946  eV     1   --> B              
     e(  5 -  5) =     14.72695  eV     1   --> B              
     e(  6 -  6) =     14.94617  eV     1   --> A              
     e(  7 -  7) =     15.59817  eV     1   --> B              
     e(  8 -  8) =     17.05660  eV     1   --> A              
     e(  9 -  9) =     18.05779  eV     1   --> A              
     e( 10 - 10) =     23.31372  eV     1   --> B              

 **************************************************************************

 **************************************************************************

                    xk=(  -0.90000,   0.50000,   0.10000  )

     Band symmetry, C_2  (2)    point group:

     e(  1 -  1) =    -84.90268  eV     1   --> A              
     e(  2 -  2) =    -45.39262  eV     1   --> B              
     e(  3 -  3) =    -45.36965  eV     1   --> A              
     e(  4 -  4) =    -45.30795  eV     1   --> B              
     e(  5 -  5) =     14.58847  eV     1   --> B              
     e(  6 -  6) =     15.17745  eV     1   --> A              
     e(  7 -  7) =     15.48308  eV     1   --> B              
     e(  8 -  8) =     17.12678  eV     1   --> A              
     e(  9 -  9) =     18.15602  eV     1   --> A              
     e( 10 - 10) =     24.29153  eV     1   --> B              

 **************************************************************************

 **************************************************************************

                    xk=(  -0.95000,   0.50000,   0.05000  )

     Band symmetry, C_2  (2)    point group:

     e(  1 -  1) =    -84.90187  eV     1   --> A              
     e(  2 -  2) =    -45.38410  eV     1   --> B              
     e(  3 -  3) =    -45.37790  eV     1   --> A              
     e(  4 -  4) =    -45.31484  eV     1   --> B              
     e(  5 -  5) =     14.50492  eV     1   --> B              
     e(  6 -  6) =     15.33143  eV     1   --> A              
     e(  7 -  7) =     15.41063  eV     1   --> B              
     e(  8 -  8) =     17.14310  eV     1   --> A              
     e(  9 -  9) =     18.24931  eV     1   --> A              
     e( 10 - 10) =     25.21849  eV     1   --> B              

 **************************************************************************

 **************************************************************************

                    xk=(  -1.00000,   0.50000,   0.00000  )

     point group D_2d (-42m)
     there are  5 classes
     the character table:

       E     2S4   C2    2C2'  2s_d 
A_1    1.00  1.00  1.00  1.00  1.00
A_2    1.00  1.00  1.00 -1.00 -1.00
B_1    1.00 -1.00  1.00  1.00 -1.00
B_2    1.00 -1.00  1.00 -1.00  1.00
E      2.00  0.00 -2.00  0.00  0.00

     the symmetry operations in each class and the name of the first element:

     E        1
                                                                 
     2S4      7    8
                                                                 
     C2       2
                                                                 
     2C2'     3    4
                                                                 
     2s_d     5    6
                                                                 

     Band symmetry, D_2d (-42m) point group:

     e(  1 -  1) =    -84.90159  eV     1   --> A_1  X_1  W_1  
     e(  2 -  3) =    -45.38074  eV     2   --> E    X_5  W_3  
     e(  4 -  4) =    -45.31764  eV     1   --> B_2  X_3  W_2  
     e(  5 -  5) =     14.47704  eV     1   --> B_2  X_3  W_2  
     e(  6 -  7) =     15.38591  eV     2   --> E    X_5  W_3  
     e(  8 -  8) =     17.14309  eV     1   --> A_1  X_1  W_1  
     e(  9 -  9) =     18.28693  eV     1   --> B_1  X_2  W_1' 
     e( 10 - 10) =     25.71934  eV     1   -->   ?

 **************************************************************************

 **************************************************************************

                    xk=(  -1.00000,   0.45000,   0.00000  )

     point group C_2v (mm2) 
     there are  4 classes
     the character table:

       E     C2    s_v   s_v' 
A_1    1.00  1.00  1.00  1.00
A_2    1.00  1.00 -1.00 -1.00
B_1    1.00 -1.00  1.00 -1.00
B_2    1.00 -1.00 -1.00  1.00

     the symmetry operations in each class and the name of the first element:

     E        1
                                                                 
     C2       2
                                                                 
     s_v      3
                                                                 
     s_v'     4
                                                                 

     Band symmetry, C_2v (mm2)  point group:

     e(  1 -  1) =    -84.90159  eV     1   --> A_1  D_1  S_1  
     e(  2 -  2) =    -45.39083  eV     1   --> B_1  D_3  S_3  
     e(  3 -  3) =    -45.37064  eV     1   --> B_2  D_4  S_4  
     e(  4 -  4) =    -45.31760  eV     1   --> A_1  D_1  S_1  
     e(  5 -  5) =     14.44589  eV     1   --> A_1  D_1  S_1  
     e(  6 -  6) =     15.16735  eV     1   --> B_2  D_4  S_4  
     e(  7 -  7) =     15.62917  eV     1   --> B_1  D_3  S_3  
     e(  8 -  8) =     17.17229  eV     1   --> A_1  D_1  S_1  
     e(  9 -  9) =     18.28691  eV     1   --> A_2  D_2  S_2  
     e( 10 - 10) =     24.98701  eV     1   --> B_1  D_3  S_3  

 **************************************************************************

 **************************************************************************

                    xk=(  -1.00000,   0.40000,   0.00000  )

     Band symmetry, C_2v (mm2)  point group:

     e(  1 -  1) =    -84.90159  eV     1   --> A_1  D_1  S_1  
     e(  2 -  2) =    -45.40066  eV     1   --> B_1  D_3  S_3  
     e(  3 -  3) =    -45.36079  eV     1   --> B_2  D_4  S_4  
     e(  4 -  4) =    -45.31750  eV     1   --> A_1  D_1  S_1  
     e(  5 -  5) =     14.35933  eV     1   --> A_1  D_1  S_1  
     e(  6 -  6) =     14.97338  eV     1   --> B_2  D_4  S_4  
     e(  7 -  7) =     15.89697  eV     1   --> B_1  D_3  S_3  
     e(  8 -  8) =     17.25299  eV     1   --> A_1  D_1  S_1  
     e(  9 -  9) =     18.28682  eV     1   --> A_2  D_2  S_2  
     e( 10 - 10) =     24.27733  eV     1   --> B_1  D_3  S_3  

 **************************************************************************

 **************************************************************************

                    xk=(  -1.00000,   0.35000,   0.00000  )

     Band symmetry, C_2v (mm2)  point group:

     e(  1 -  1) =    -84.90160  eV     1   --> A_1  D_1  S_1  
     e(  2 -  2) =    -45.41001  eV     1   --> B_1  D_3  S_3  
     e(  3 -  3) =    -45.35142  eV     1   --> B_2  D_4  S_4  
     e(  4 -  4) =    -45.31733  eV     1   --> A_1  D_1  S_1  
     e(  5 -  5) =     14.23422  eV     1   --> A_1  D_1  S_1  
     e(  6 -  6) =     14.80376  eV     1   --> B_2  D_4  S_4  
     e(  7 -  7) =     16.18884  eV     1   --> B_1  D_3  S_3  
     e(  8 -  8) =     17.36875  eV     1   --> A_1  D_1  S_1  
     e(  9 -  9) =     18.28671  eV     1   --> A_2  D_2  S_2  
     e( 10 - 10) =     23.59235  eV     1   --> B_1  D_3  S_3  

 **************************************************************************

 **************************************************************************

                    xk=(  -1.00000,   0.30000,   0.00000  )

     Band symmetry, C_2v (mm2)  point group:

     e(  1 -  1) =    -84.90160  eV     1   --> A_1  D_1  S_1  
     e(  2 -  2) =    -45.41863  eV     1   --> B_1  D_3  S_3  
     e(  3 -  3) =    -45.34278  eV     1   --> B_2  D_4  S_4  
     e(  4 -  4) =    -45.31712  eV     1   --> A_1  D_1  S_1  
     e(  5 -  5) =     14.08989  eV     1   --> A_1  D_1  S_1  
     e(  6 -  6) =     14.65800  eV     1   --> B_2  D_4  S_4  
     e(  7 -  7) =     16.50355  eV     1   --> B_1  D_3  S_3  
     e(  8 -  8) =     17.50074  eV     1   --> A_1  D_1  S_1  
     e(  9 -  9) =     18.28651  eV     1   --> A_2  D_2  S_2  
     e( 10 - 10) =     22.93449  eV     1   --> B_1  D_3  S_3  

 **************************************************************************

 **************************************************************************

                    xk=(  -1.00000,   0.25000,   0.00000  )

     Band symmetry, C_2v (mm2)  point group:

     e(  1 -  1) =    -84.90161  eV     1   --> A_1  D_1  S_1  
     e(  2 -  2) =    -45.42631  eV     1   --> B_1  D_3  S_3  
     e(  3 -  3) =    -45.33507  eV     1   --> B_2  D_4  S_4  
     e(  4 -  4) =    -45.31688  eV     1   --> A_1  D_1  S_1  
     e(  5 -  5) =     13.94342  eV     1   --> A_1  D_1  S_1  
     e(  6 -  6) =     14.53561  eV     1   --> B_2  D_4  S_4  
     e(  7 -  7) =     16.83880  eV     1   --> B_1  D_3  S_3  
     e(  8 -  8) =     17.63289  eV     1   --> A_1  D_1  S_1  
     e(  9 -  9) =     18.28633  eV     1   --> A_2  D_2  S_2  
     e( 10 - 10) =     22.30717  eV     1   --> B_1  D_3  S_3  

 **************************************************************************

 **************************************************************************

                    xk=(  -1.00000,   0.20000,   0.00000  )

     Band symmetry, C_2v (mm2)  point group:

     e(  1 -  1) =    -84.90162  eV     1   --> A_1  D_1  S_1  
     e(  2 -  2) =    -45.43287  eV     1   --> B_1  D_3  S_3  
     e(  3 -  3) =    -45.32848  eV     1   --> B_2  D_4  S_4  
     e(  4 -  4) =    -45.31665  eV     1   --> A_1  D_1  S_1  
     e(  5 -  5) =     13.80820  eV     1   --> A_1  D_1  S_1  
     e(  6 -  6) =     14.43630  eV     1   --> B_2  D_4  S_4  
     e(  7 -  7) =     17.18996  eV     1   --> B_1  D_3  S_3  
     e(  8 -  8) =     17.75306  eV     1   --> A_1  D_1  S_1  
     e(  9 -  9) =     18.28615  eV     1   --> A_2  D_2  S_2  
     e( 10 - 10) =     21.71583  eV     1   --> B_1  D_3  S_3  

 **************************************************************************

 **************************************************************************

                    xk=(  -1.00000,   0.15000,   0.00000  )

     Band symmetry, C_2v (mm2)  point group:

     e(  1 -  1) =    -84.90163  eV     1   --> A_1  D_1  S_1  
     e(  2 -  2) =    -45.43814  eV     1   --> B_1  D_3  S_3  
     e(  3 -  3) =    -45.32318  eV     1   --> B_2  D_4  S_4  
     e(  4 -  4) =    -45.31644  eV     1   --> A_1  D_1  S_1  
     e(  5 -  5) =     13.69404  eV     1   --> A_1  D_1  S_1  
     e(  6 -  6) =     14.35949  eV     1   --> B_2  D_4  S_4  
     e(  7 -  7) =     17.54761  eV     1   --> B_1  D_3  S_3  
     e(  8 -  8) =     17.85302  eV     1   --> A_1  D_1  S_1  
     e(  9 -  9) =     18.28599  eV     1   --> A_2  D_2  S_2  
     e( 10 - 10) =     21.17064  eV     1   --> B_1  D_3  S_3  

 **************************************************************************

 **************************************************************************

                    xk=(  -1.00000,   0.10000,   0.00000  )

     Band symmetry, C_2v (mm2)  point group:

     e(  1 -  1) =    -84.90163  eV     1   --> A_1  D_1  S_1  
     e(  2 -  2) =    -45.44201  eV     1   --> B_1  D_3  S_3  
     e(  3 -  3) =    -45.31929  eV     1   --> B_2  D_4  S_4  
     e(  4 -  4) =    -45.31627  eV     1   --> A_1  D_1  S_1  
     e(  5 -  5) =     13.60797  eV     1   --> A_1  D_1  S_1  
     e(  6 -  6) =     14.30491  eV     1   --> B_2  D_4  S_4  
     e(  7 -  7) =     17.89060  eV     1   --> B_1  D_3  S_3  
     e(  8 -  8) =     17.92748  eV     1   --> A_1  D_1  S_1  
     e(  9 -  9) =     18.28587  eV     1   --> A_2  D_2  S_2  
     e( 10 - 10) =     20.69326  eV     1   --> B_1  D_3  S_3  

 **************************************************************************

 **************************************************************************

                    xk=(  -1.00000,   0.05000,   0.00000  )

     Band symmetry, C_2v (mm2)  point group:

     e(  1 -  1) =    -84.90163  eV     1   --> A_1  D_1  S_1  
     e(  2 -  2) =    -45.44437  eV     1   --> B_1  D_3  S_3  
     e(  3 -  3) =    -45.31692  eV     1   --> B_2  D_4  S_4  
     e(  4 -  4) =    -45.31616  eV     1   --> A_1  D_1  S_1  
     e(  5 -  5) =     13.55458  eV     1   --> A_1  D_1  S_1  
     e(  6 -  6) =     14.27228  eV     1   --> B_2  D_4  S_4  
     e(  7 -  7) =     17.97327  eV     1   --> A_1  D_1  S_1  
     e(  8 -  8) =     18.16927  eV     1   --> B_1  D_3  S_3  
     e(  9 -  9) =     18.28576  eV     1   --> A_2  D_2  S_2  
     e( 10 - 10) =     20.33379  eV     1   --> B_1  D_3  S_3  

 **************************************************************************

 **************************************************************************

                    xk=(  -1.00000,   0.00000,   0.00000  )

     point group D_4h(4/mmm)
     there are 10 classes
     the character table:

       E     2C4   C2    2C2'  2C2'' i     2S4   s_h   2s_v  2s_d 
A_1g   1.00  1.00  1.00  1.00  1.00  1.00  1.00  1.00  1.00  1.00
A_2g   1.00  1.00  1.00 -1.00 -1.00  1.00  1.00  1.00 -1.00 -1.00
B_1g   1.00 -1.00  1.00  1.00 -1.00  1.00 -1.00  1.00  1.00 -1.00
B_2g   1.00 -1.00  1.00 -1.00  1.00  1.00 -1.00  1.00 -1.00  1.00
E_g    2.00  0.00 -2.00  0.00  0.00  2.00  0.00 -2.00  0.00  0.00
A_1u   1.00  1.00  1.00  1.00  1.00 -1.00 -1.00 -1.00 -1.00 -1.00
A_2u   1.00  1.00  1.00 -1.00 -1.00 -1.00 -1.00 -1.00  1.00  1.00
B_1u   1.00 -1.00  1.00  1.00 -1.00 -1.00  1.00 -1.00 -1.00  1.00
B_2u   1.00 -1.00  1.00 -1.00  1.00 -1.00  1.00 -1.00  1.00 -1.00
E_u    2.00  0.00 -2.00  0.00  0.00 -2.00  0.00  2.00  0.00  0.00

     the symmetry operations in each class and the name of the first element:

     E        1
                                                                 
     2C4      7    8
                                                                 
     C2       4
                                                                 
     2C2'     2    3
                                                                 
     2C2''    5    6
                                                                 
     i        9
                                                                 
     2S4     15   16
                                                                 
     s_h     12
                                                                 
     2s_v    10   11
                                                                 
     2s_d    13   14
                                                                 

     Band symmetry, D_4h(4/mmm) point group:

     e(  1 -  1) =    -84.90164  eV     1   --> A_1g X_1  M_1  
     e(  2 -  2) =    -45.44516  eV     1   --> A_2u X_4' M_4' 
     e(  3 -  4) =    -45.31613  eV     2   --> E_u  X_5' M_5' 
     e(  5 -  5) =     13.53648  eV     1   --> A_1g X_1  M_1  
     e(  6 -  6) =     14.26136  eV     1   --> B_2g X_3  M_3  
     e(  7 -  7) =     17.98867  eV     1   --> B_1g X_2  M_2  
     e(  8 -  9) =     18.28571  eV     2   --> E_g  X_5  M_5  
     e( 10 - 10) =     20.19034  eV     1   --> A_2u X_4' M_4' 

 **************************************************************************

 **************************************************************************

                    xk=(  -0.90000,   0.00000,   0.00000  )

     point group C_4v (4mm) 
     there are  5 classes
     the character table:

       E     2C4   C2    2s_v  2s_d 
A_1    1.00  1.00  1.00  1.00  1.00
A_2    1.00  1.00  1.00 -1.00 -1.00
B_1    1.00 -1.00  1.00  1.00 -1.00
B_2    1.00 -1.00  1.00 -1.00  1.00
E      2.00  0.00 -2.00  0.00  0.00

     the symmetry operations in each class and the name of the first element:

     E        1
                                                                 
     2C4      3    4
                                                                 
     C2       2
                                                                 
     2s_v     5    6
                                                                 
     2s_d     7    8
                                                                 

     Band symmetry, C_4v (4mm)  point group:

     e(  1 -  1) =    -84.90276  eV     1   --> A_1  G_1 D_1   
     e(  2 -  2) =    -45.44012  eV     1   --> A_1  G_1 D_1   
     e(  3 -  4) =    -45.31406  eV     2   --> E    G_5 D_5   
     e(  5 -  5) =     13.53130  eV     1   --> A_1  G_1 D_1   
     e(  6 -  6) =     14.30441  eV     1   --> B_2  G_4 D_2'  
     e(  7 -  7) =     17.96981  eV     1   --> B_1  G_3 D_2   
     e(  8 -  9) =     18.21426  eV     2   --> E    G_5 D_5   
     e( 10 - 10) =     19.58032  eV     1   --> A_1  G_1 D_1   

 **************************************************************************

 **************************************************************************

                    xk=(  -0.80000,   0.00000,   0.00000  )

     Band symmetry, C_4v (4mm)  point group:

     e(  1 -  1) =    -84.90601  eV     1   --> A_1  G_1 D_1   
     e(  2 -  2) =    -45.42546  eV     1   --> A_1  G_1 D_1   
     e(  3 -  4) =    -45.30807  eV     2   --> E    G_5 D_5   
     e(  5 -  5) =     13.47032  eV     1   --> A_1  G_1 D_1   
     e(  6 -  6) =     14.43027  eV     1   --> B_2  G_4 D_2'  
     e(  7 -  7) =     17.91522  eV     1   --> B_1  G_3 D_2   
     e(  8 -  9) =     18.01541  eV     2   --> E    G_5 D_5   
     e( 10 - 10) =     18.34455  eV     1   --> A_1  G_1 D_1   

 **************************************************************************

 **************************************************************************

                    xk=(  -0.70000,   0.00000,   0.00000  )

     Band symmetry, C_4v (4mm)  point group:

     e(  1 -  1) =    -84.91107  eV     1   --> A_1  G_1 D_1   
     e(  2 -  2) =    -45.40246  eV     1   --> A_1  G_1 D_1   
     e(  3 -  4) =    -45.29873  eV     2   --> E    G_5 D_5   
     e(  5 -  5) =     13.20480  eV     1   --> A_1  G_1 D_1   
     e(  6 -  6) =     14.62951  eV     1   --> B_2  G_4 D_2'  
     e(  7 -  7) =     17.23290  eV     1   --> A_1  G_1 D_1   
     e(  8 -  9) =     17.72845  eV     2   --> E    G_5 D_5   
     e( 10 - 10) =     17.83078  eV     1   --> B_1  G_3 D_2   

 **************************************************************************

 **************************************************************************

                    xk=(  -0.60000,   0.00000,   0.00000  )

     Band symmetry, C_4v (4mm)  point group:

     e(  1 -  1) =    -84.91746  eV     1   --> A_1  G_1 D_1   
     e(  2 -  2) =    -45.37321  eV     1   --> A_1  G_1 D_1   
     e(  3 -  4) =    -45.28696  eV     2   --> E    G_5 D_5   
     e(  5 -  5) =     12.56533  eV     1   --> A_1  G_1 D_1   
     e(  6 -  6) =     14.88620  eV     1   --> B_2  G_4 D_2'  
     e(  7 -  7) =     16.63412  eV     1   --> A_1  G_1 D_1   
     e(  8 -  9) =     17.39961  eV     2   --> E    G_5 D_5   
     e( 10 - 10) =     17.72527  eV     1   --> B_1  G_3 D_2   

 **************************************************************************

 **************************************************************************

                    xk=(  -0.50000,   0.00000,   0.00000  )

     Band symmetry, C_4v (4mm)  point group:

     e(  1 -  1) =    -84.92454  eV     1   --> A_1  G_1 D_1   
     e(  2 -  2) =    -45.34043  eV     1   --> A_1  G_1 D_1   
     e(  3 -  4) =    -45.27391  eV     2   --> E    G_5 D_5   
     e(  5 -  5) =     11.63997  eV     1   --> A_1  G_1 D_1   
     e(  6 -  6) =     15.17859  eV     1   --> B_2  G_4 D_2'  
     e(  7 -  7) =     16.52271  eV     1   --> A_1  G_1 D_1   
     e(  8 -  9) =     17.07007  eV     2   --> E    G_5 D_5   
     e( 10 - 10) =     17.60951  eV     1   --> B_1  G_3 D_2   

 **************************************************************************

 **************************************************************************

                    xk=(  -0.40000,   0.00000,   0.00000  )

     Band symmetry, C_4v (4mm)  point group:

     e(  1 -  1) =    -84.93162  eV     1   --> A_1  G_1 D_1   
     e(  2 -  2) =    -45.30725  eV     1   --> A_1  G_1 D_1   
     e(  3 -  4) =    -45.26085  eV     2   --> E    G_5 D_5   
     e(  5 -  5) =     10.67925  eV     1   --> A_1  G_1 D_1   
     e(  6 -  6) =     15.47973  eV     1   --> B_2  G_4 D_2'  
     e(  7 -  7) =     16.65795  eV     1   --> A_1  G_1 D_1   
     e(  8 -  9) =     16.77083  eV     2   --> E    G_5 D_5   
     e( 10 - 10) =     17.49500  eV     1   --> B_1  G_3 D_2   

 **************************************************************************

 **************************************************************************

                    xk=(  -0.30000,   0.00000,   0.00000  )

     Band symmetry, C_4v (4mm)  point group:

     e(  1 -  1) =    -84.93802  eV     1   --> A_1  G_1 D_1   
     e(  2 -  2) =    -45.27699  eV     1   --> A_1  G_1 D_1   
     e(  3 -  4) =    -45.24906  eV     2   --> E    G_5 D_5   
     e(  5 -  5) =      9.84553  eV     1   --> A_1  G_1 D_1   
     e(  6 -  6) =     15.75943  eV     1   --> B_2  G_4 D_2'  
     e(  7 -  8) =     16.52265  eV     2   --> E    G_5 D_5   
     e(  9 -  9) =     16.86833  eV     1   --> A_1  G_1 D_1   
     e( 10 - 10) =     17.39284  eV     1   --> B_1  G_3 D_2   

 **************************************************************************

 **************************************************************************

                    xk=(  -0.20000,   0.00000,   0.00000  )

     Band symmetry, C_4v (4mm)  point group:

     e(  1 -  1) =    -84.94310  eV     1   --> A_1  G_1 D_1   
     e(  2 -  2) =    -45.25274  eV     1   --> A_1  G_1 D_1   
     e(  3 -  4) =    -45.23971  eV     2   --> E    G_5 D_5   
     e(  5 -  5) =      9.21571  eV     1   --> A_1  G_1 D_1   
     e(  6 -  6) =     15.98697  eV     1   --> B_2  G_4 D_2'  
     e(  7 -  8) =     16.33847  eV     2   --> E    G_5 D_5   
     e(  9 -  9) =     17.06371  eV     1   --> A_1  G_1 D_1   
     e( 10 - 10) =     17.31238  eV     1   --> B_1  G_3 D_2   

 **************************************************************************

 **************************************************************************

                    xk=(  -0.10000,   0.00000,   0.00000  )

     Band symmetry, C_4v (4mm)  point group:

     e(  1 -  1) =    -84.94636  eV     1   --> A_1  G_1 D_1   
     e(  2 -  2) =    -45.23707  eV     1   --> A_1  G_1 D_1   
     e(  3 -  4) =    -45.23371  eV     2   --> E    G_5 D_5   
     e(  5 -  5) =      8.82647  eV     1   --> A_1  G_1 D_1   
     e(  6 -  6) =     16.13586  eV     1   --> B_2  G_4 D_2'  
     e(  7 -  8) =     16.22561  eV     2   --> E    G_5 D_5   
     e(  9 -  9) =     17.19660  eV     1   --> A_1  G_1 D_1   
     e( 10 - 10) =     17.26100  eV     1   --> B_1  G_3 D_2   

 **************************************************************************

 **************************************************************************

                    xk=(   0.00000,   0.00000,   0.00000  )

     point group O_h (m-3m) 
     there are 10 classes
     the character table:

       E     8C3   3C2   6C4   6C2'  i     8S6   3s_h  6S4   6s_d 
A_1g   1.00  1.00  1.00  1.00  1.00  1.00  1.00  1.00  1.00  1.00
A_2g   1.00  1.00  1.00 -1.00 -1.00  1.00  1.00  1.00 -1.00 -1.00
E_g    2.00 -1.00  2.00  0.00  0.00  2.00 -1.00  2.00  0.00  0.00
T_1g   3.00  0.00 -1.00  1.00 -1.00  3.00  0.00 -1.00  1.00 -1.00
T_2g   3.00  0.00 -1.00 -1.00  1.00  3.00  0.00 -1.00 -1.00  1.00
A_1u   1.00  1.00  1.00  1.00  1.00 -1.00 -1.00 -1.00 -1.00 -1.00
A_2u   1.00  1.00  1.00 -1.00 -1.00 -1.00 -1.00 -1.00  1.00  1.00
E_u    2.00 -1.00  2.00  0.00  0.00 -2.00  1.00 -2.00  0.00  0.00
T_1u   3.00  0.00 -1.00  1.00 -1.00 -3.00  0.00  1.00 -1.00  1.00
T_2u   3.00  0.00 -1.00 -1.00  1.00 -3.00  0.00  1.00  1.00 -1.00

     the symmetry operations in each class and the name of the first element:

     E        1
                                                                 
     8C3     17   19   20   18   24   21   22   23
                                                                 
     3C2      2    4    3
                                                                 
     6C4      7    8   15   16   12   11
                                                                 
     6C2'     5    6   14   13   10    9
                                                                 
     i       25
                                                                 
     8S6     41   43   44   42   48   45   46   47
                                                                 
     3s_h    26   28   27
                                                                 
     6S4     31   32   39   40   36   35
                                                                 
     6s_d    29   30   38   37   34   33
                                                                 

     Band symmetry, O_h (m-3m)  point group:

     e(  1 -  1) =    -84.94748  eV     1   --> A_1g G_1   G_1+
     e(  2 -  4) =    -45.23164  eV     3   --> T_1u G_15  G_4-
     e(  5 -  5) =      8.69501  eV     1   --> A_1g G_1   G_1+
     e(  6 -  8) =     16.18768  eV     3   --> T_2g G_25' G_5+
     e(  9 - 10) =     17.24337  eV     2   --> E_g  G_12  G_3+

 **************************************************************************

 **************************************************************************

                    xk=(  -0.03750,   0.03750,   0.00000  )

     point group C_2v (mm2) 
     there are  4 classes
     the character table:

       E     C2    s_v   s_v' 
A_1    1.00  1.00  1.00  1.00
A_2    1.00  1.00 -1.00 -1.00
B_1    1.00 -1.00  1.00 -1.00
B_2    1.00 -1.00 -1.00  1.00

     the symmetry operations in each class and the name of the first element:

     E        1
                                                                 
     C2       2
                                                                 
     s_v      4
                                                                 
     s_v'     3
                                                                 

     Band symmetry, C_2v (mm2)  point group:

     e(  1 -  1) =    -84.94717  eV     1   --> A_1  D_1  S_1  
     e(  2 -  2) =    -45.23360  eV     1   --> A_1  D_1  S_1  
     e(  3 -  3) =    -45.23223  eV     1   --> B_1  D_3  S_3  
     e(  4 -  4) =    -45.23180  eV     1   --> B_2  D_4  S_4  
     e(  5 -  5) =      8.73206  eV     1   --> A_1  D_1  S_1  
     e(  6 -  6) =     16.17565  eV     1   --> B_1  D_3  S_3  
     e(  7 -  7) =     16.19576  eV     1   --> A_2  D_2  S_2  
     e(  8 -  8) =     16.19824  eV     1   --> A_1  D_1  S_1  
     e(  9 -  9) =     17.23473  eV     1   --> B_2  D_4  S_4  
     e( 10 - 10) =     17.24389  eV     1   --> A_1  D_1  S_1  

 **************************************************************************

 **************************************************************************

                    xk=(  -0.07500,   0.07500,   0.00000  )

     Band symmetry, C_2v (mm2)  point group:

     e(  1 -  1) =    -84.94622  eV     1   --> A_1  D_1  S_1  
     e(  2 -  2) =    -45.23938  eV     1   --> A_1  D_1  S_1  
     e(  3 -  3) =    -45.23399  eV     1   --> B_1  D_3  S_3  
     e(  4 -  4) =    -45.23228  eV     1   --> B_2  D_4  S_4  
     e(  5 -  5) =      8.84280  eV     1   --> A_1  D_1  S_1  
     e(  6 -  6) =     16.14023  eV     1   --> B_1  D_3  S_3  
     e(  7 -  7) =     16.21982  eV     1   --> A_2  D_2  S_2  
     e(  8 -  8) =     16.22847  eV     1   --> A_1  D_1  S_1  
     e(  9 -  9) =     17.20918  eV     1   --> B_2  D_4  S_4  
     e( 10 - 10) =     17.24650  eV     1   --> A_1  D_1  S_1  

 **************************************************************************

 **************************************************************************

                    xk=(  -0.11250,   0.11250,   0.00000  )

     Band symmetry, C_2v (mm2)  point group:

     e(  1 -  1) =    -84.94469  eV     1   --> A_1  D_1  S_1  
     e(  2 -  2) =    -45.24869  eV     1   --> A_1  D_1  S_1  
     e(  3 -  3) =    -45.23691  eV     1   --> B_1  D_3  S_3  
     e(  4 -  4) =    -45.23310  eV     1   --> B_2  D_4  S_4  
     e(  5 -  5) =      9.02595  eV     1   --> A_1  D_1  S_1  
     e(  6 -  6) =     16.08376  eV     1   --> B_1  D_3  S_3  
     e(  7 -  7) =     16.25944  eV     1   --> A_2  D_2  S_2  
     e(  8 -  8) =     16.27349  eV     1   --> A_1  D_1  S_1  
     e(  9 -  9) =     17.16883  eV     1   --> B_2  D_4  S_4  
     e( 10 - 10) =     17.25490  eV     1   --> A_1  D_1  S_1  

 **************************************************************************

 **************************************************************************

                    xk=(  -0.15000,   0.15000,   0.00000  )

     Band symmetry, C_2v (mm2)  point group:

     e(  1 -  1) =    -84.94261  eV     1   --> A_1  D_1  S_1  
     e(  2 -  2) =    -45.26106  eV     1   --> A_1  D_1  S_1  
     e(  3 -  3) =    -45.24099  eV     1   --> B_1  D_3  S_3  
     e(  4 -  4) =    -45.23426  eV     1   --> B_2  D_4  S_4  
     e(  5 -  5) =      9.27933  eV     1   --> A_1  D_1  S_1  
     e(  6 -  6) =     16.00974  eV     1   --> B_1  D_3  S_3  
     e(  7 -  7) =     16.31401  eV     1   --> A_2  D_2  S_2  
     e(  8 -  8) =     16.32458  eV     1   --> A_1  D_1  S_1  
     e(  9 -  9) =     17.11634  eV     1   --> B_2  D_4  S_4  
     e( 10 - 10) =     17.27603  eV     1   --> A_1  D_1  S_1  

 **************************************************************************

 **************************************************************************

                    xk=(  -0.18750,   0.18750,   0.00000  )

     Band symmetry, C_2v (mm2)  point group:

     e(  1 -  1) =    -84.94007  eV     1   --> A_1  D_1  S_1  
     e(  2 -  2) =    -45.27590  eV     1   --> A_1  D_1  S_1  
     e(  3 -  3) =    -45.24621  eV     1   --> B_1  D_3  S_3  
     e(  4 -  4) =    -45.23578  eV     1   --> B_2  D_4  S_4  
     e(  5 -  5) =      9.59977  eV     1   --> A_1  D_1  S_1  
     e(  6 -  6) =     15.92265  eV     1   --> B_1  D_3  S_3  
     e(  7 -  7) =     16.36874  eV     1   --> A_1  D_1  S_1  
     e(  8 -  8) =     16.38262  eV     1   --> A_2  D_2  S_2  
     e(  9 -  9) =     17.05537  eV     1   --> B_2  D_4  S_4  
     e( 10 - 10) =     17.32036  eV     1   --> A_1  D_1  S_1  

 **************************************************************************

 **************************************************************************

                    xk=(  -0.22500,   0.22500,   0.00000  )

     Band symmetry, C_2v (mm2)  point group:

     e(  1 -  1) =    -84.93713  eV     1   --> A_1  D_1  S_1  
     e(  2 -  2) =    -45.29246  eV     1   --> A_1  D_1  S_1  
     e(  3 -  3) =    -45.25255  eV     1   --> B_1  D_3  S_3  
     e(  4 -  4) =    -45.23769  eV     1   --> B_2  D_4  S_4  
     e(  5 -  5) =      9.98289  eV     1   --> A_1  D_1  S_1  
     e(  6 -  6) =     15.82775  eV     1   --> B_1  D_3  S_3  
     e(  7 -  7) =     16.39138  eV     1   --> A_1  D_1  S_1  
     e(  8 -  8) =     16.46407  eV     1   --> A_2  D_2  S_2  
     e(  9 -  9) =     16.99003  eV     1   --> B_2  D_4  S_4  
     e( 10 - 10) =     17.40000  eV     1   --> A_1  D_1  S_1  

 **************************************************************************

 **************************************************************************

                    xk=(  -0.26250,   0.26250,   0.00000  )

     Band symmetry, C_2v (mm2)  point group:

     e(  1 -  1) =    -84.93391  eV     1   --> A_1  D_1  S_1  
     e(  2 -  2) =    -45.30996  eV     1   --> A_1  D_1  S_1  
     e(  3 -  3) =    -45.25996  eV     1   --> B_1  D_3  S_3  
     e(  4 -  4) =    -45.24000  eV     1   --> B_2  D_4  S_4  
     e(  5 -  5) =     10.42291  eV     1   --> A_1  D_1  S_1  
     e(  6 -  6) =     15.73074  eV     1   --> B_1  D_3  S_3  
     e(  7 -  7) =     16.38178  eV     1   --> A_1  D_1  S_1  
     e(  8 -  8) =     16.55704  eV     1   --> A_2  D_2  S_2  
     e(  9 -  9) =     16.92475  eV     1   --> B_2  D_4  S_4  
     e( 10 - 10) =     17.52332  eV     1   --> A_1  D_1  S_1  

 **************************************************************************

 **************************************************************************

                    xk=(  -0.30000,   0.30000,   0.00000  )

     Band symmetry, C_2v (mm2)  point group:

     e(  1 -  1) =    -84.93049  eV     1   --> A_1  D_1  S_1  
     e(  2 -  2) =    -45.32757  eV     1   --> A_1  D_1  S_1  
     e(  3 -  3) =    -45.26840  eV     1   --> B_1  D_3  S_3  
     e(  4 -  4) =    -45.24273  eV     1   --> B_2  D_4  S_4  
     e(  5 -  5) =     10.91211  eV     1   --> A_1  D_1  S_1  
     e(  6 -  6) =     15.63730  eV     1   --> B_1  D_3  S_3  
     e(  7 -  7) =     16.33694  eV     1   --> A_1  D_1  S_1  
     e(  8 -  8) =     16.65996  eV     1   --> A_2  D_2  S_2  
     e(  9 -  9) =     16.86395  eV     1   --> B_2  D_4  S_4  
     e( 10 - 10) =     17.69180  eV     1   --> A_1  D_1  S_1  

 **************************************************************************

 **************************************************************************

                    xk=(  -0.33750,   0.33750,   0.00000  )

     Band symmetry, C_2v (mm2)  point group:

     e(  1 -  1) =    -84.92699  eV     1   --> A_1  D_1  S_1  
     e(  2 -  2) =    -45.34448  eV     1   --> A_1  D_1  S_1  
     e(  3 -  3) =    -45.27781  eV     1   --> B_1  D_3  S_3  
     e(  4 -  4) =    -45.24588  eV     1   --> B_2  D_4  S_4  
     e(  5 -  5) =     11.44026  eV     1   --> A_1  D_1  S_1  
     e(  6 -  6) =     15.55308  eV     1   --> B_1  D_3  S_3  
     e(  7 -  7) =     16.25959  eV     1   --> A_1  D_1  S_1  
     e(  8 -  8) =     16.77113  eV     1   --> A_2  D_2  S_2  
     e(  9 -  9) =     16.81184  eV     1   --> B_2  D_4  S_4  
     e( 10 - 10) =     17.90326  eV     1   --> A_1  D_1  S_1  

 **************************************************************************

 **************************************************************************

                    xk=(  -0.37500,   0.37500,   0.00000  )

     Band symmetry, C_2v (mm2)  point group:

     e(  1 -  1) =    -84.92349  eV     1   --> A_1  D_1  S_1  
     e(  2 -  2) =    -45.35993  eV     1   --> A_1  D_1  S_1  
     e(  3 -  3) =    -45.28811  eV     1   --> B_1  D_3  S_3  
     e(  4 -  4) =    -45.24947  eV     1   --> B_2  D_4  S_4  
     e(  5 -  5) =     11.99364  eV     1   --> A_1  D_1  S_1  
     e(  6 -  6) =     15.48330  eV     1   --> B_1  D_3  S_3  
     e(  7 -  7) =     16.15410  eV     1   --> A_1  D_1  S_1  
     e(  8 -  8) =     16.77221  eV     1   --> B_2  D_4  S_4  
     e(  9 -  9) =     16.88872  eV     1   --> A_2  D_2  S_2  
     e( 10 - 10) =     18.15691  eV     1   --> A_1  D_1  S_1  

 **************************************************************************

 **************************************************************************

                    xk=(  -0.41250,   0.41250,   0.00000  )

     Band symmetry, C_2v (mm2)  point group:

     e(  1 -  1) =    -84.92010  eV     1   --> A_1  D_1  S_1  
     e(  2 -  2) =    -45.37324  eV     1   --> A_1  D_1  S_1  
     e(  3 -  3) =    -45.29918  eV     1   --> B_1  D_3  S_3  
     e(  4 -  4) =    -45.25347  eV     1   --> B_2  D_4  S_4  
     e(  5 -  5) =     12.55407  eV     1   --> A_1  D_1  S_1  
     e(  6 -  6) =     15.43289  eV     1   --> B_1  D_3  S_3  
     e(  7 -  7) =     16.02460  eV     1   --> A_1  D_1  S_1  
     e(  8 -  8) =     16.74837  eV     1   --> B_2  D_4  S_4  
     e(  9 -  9) =     17.01085  eV     1   --> A_2  D_2  S_2  
     e( 10 - 10) =     18.45706  eV     1   --> A_1  D_1  S_1  

 **************************************************************************

 **************************************************************************

                    xk=(  -0.45000,   0.45000,   0.00000  )

     Band symmetry, C_2v (mm2)  point group:

     e(  1 -  1) =    -84.91689  eV     1   --> A_1  D_1  S_1  
     e(  2 -  2) =    -45.38390  eV     1   --> A_1  D_1  S_1  
     e(  3 -  3) =    -45.31092  eV     1   --> B_1  D_3  S_3  
     e(  4 -  4) =    -45.25785  eV     1   --> B_2  D_4  S_4  
     e(  5 -  5) =     13.09801  eV     1   --> A_1  D_1  S_1  
     e(  6 -  6) =     15.40612  eV     1   --> B_1  D_3  S_3  
     e(  7 -  7) =     15.87458  eV     1   --> A_1  D_1  S_1  
     e(  8 -  8) =     16.74287  eV     1   --> B_2  D_4  S_4  
     e(  9 -  9) =     17.13557  eV     1   --> A_2  D_2  S_2  
     e( 10 - 10) =     18.81472  eV     1   --> A_1  D_1  S_1  

 **************************************************************************

 **************************************************************************

                    xk=(  -0.48750,   0.48750,   0.00000  )

     Band symmetry, C_2v (mm2)  point group:

     e(  1 -  1) =    -84.91394  eV     1   --> A_1  D_1  S_1  
     e(  2 -  2) =    -45.39153  eV     1   --> A_1  D_1  S_1  
     e(  3 -  3) =    -45.32319  eV     1   --> B_1  D_3  S_3  
     e(  4 -  4) =    -45.26258  eV     1   --> B_2  D_4  S_4  
     e(  5 -  5) =     13.59735  eV     1   --> A_1  D_1  S_1  
     e(  6 -  6) =     15.40661  eV     1   --> B_1  D_3  S_3  
     e(  7 -  7) =     15.70716  eV     1   --> A_1  D_1  S_1  
     e(  8 -  8) =     16.75751  eV     1   --> B_2  D_4  S_4  
     e(  9 -  9) =     17.26095  eV     1   --> A_2  D_2  S_2  
     e( 10 - 10) =     19.24718  eV     1   --> A_1  D_1  S_1  

 **************************************************************************

 **************************************************************************

                    xk=(  -0.52500,   0.52500,   0.00000  )

     Band symmetry, C_2v (mm2)  point group:

     e(  1 -  1) =    -84.91129  eV     1   --> A_1  D_1  S_1  
     e(  2 -  2) =    -45.39590  eV     1   --> A_1  D_1  S_1  
     e(  3 -  3) =    -45.33582  eV     1   --> B_1  D_3  S_3  
     e(  4 -  4) =    -45.26760  eV     1   --> B_2  D_4  S_4  
     e(  5 -  5) =     14.02333  eV     1   --> A_1  D_1  S_1  
     e(  6 -  6) =     15.43750  eV     1   --> B_1  D_3  S_3  
     e(  7 -  7) =     15.52538  eV     1   --> A_1  D_1  S_1  
     e(  8 -  8) =     16.79342  eV     1   --> B_2  D_4  S_4  
     e(  9 -  9) =     17.38511  eV     1   --> A_2  D_2  S_2  
     e( 10 - 10) =     19.77558  eV     1   --> A_1  D_1  S_1  

 **************************************************************************

 **************************************************************************

                    xk=(  -0.56250,   0.56250,   0.00000  )

     Band symmetry, C_2v (mm2)  point group:

     e(  1 -  1) =    -84.90898  eV     1   --> A_1  D_1  S_1  
     e(  2 -  2) =    -45.39697  eV     1   --> A_1  D_1  S_1  
     e(  3 -  3) =    -45.34862  eV     1   --> B_1  D_3  S_3  
     e(  4 -  4) =    -45.27284  eV     1   --> B_2  D_4  S_4  
     e(  5 -  5) =     14.35340  eV     1   --> A_1  D_1  S_1  
     e(  6 -  6) =     15.33242  eV     1   --> A_1  D_1  S_1  
     e(  7 -  7) =     15.50145  eV     1   --> B_1  D_3  S_3  
     e(  8 -  8) =     16.85072  eV     1   --> B_2  D_4  S_4  
     e(  9 -  9) =     17.50627  eV     1   --> A_2  D_2  S_2  
     e( 10 - 10) =     20.41746  eV     1   --> A_1  D_1  S_1  

 **************************************************************************

 **************************************************************************

                    xk=(  -0.60000,   0.60000,   0.00000  )

     Band symmetry, C_2v (mm2)  point group:

     e(  1 -  1) =    -84.90703  eV     1   --> A_1  D_1  S_1  
     e(  2 -  2) =    -45.39492  eV     1   --> A_1  D_1  S_1  
     e(  3 -  3) =    -45.36143  eV     1   --> B_1  D_3  S_3  
     e(  4 -  4) =    -45.27821  eV     1   --> B_2  D_4  S_4  
     e(  5 -  5) =     14.57779  eV     1   --> A_1  D_1  S_1  
     e(  6 -  6) =     15.13156  eV     1   --> A_1  D_1  S_1  
     e(  7 -  7) =     15.60010  eV     1   --> B_1  D_3  S_3  
     e(  8 -  8) =     16.92853  eV     1   --> B_2  D_4  S_4  
     e(  9 -  9) =     17.62274  eV     1   --> A_2  D_2  S_2  
     e( 10 - 10) =     21.18085  eV     1   --> A_1  D_1  S_1  

 **************************************************************************

 **************************************************************************

                    xk=(  -0.63750,   0.63750,   0.00000  )

     Band symmetry, C_2v (mm2)  point group:

     e(  1 -  1) =    -84.90544  eV     1   --> A_1  D_1  S_1  
     e(  2 -  2) =    -45.39002  eV     1   --> A_1  D_1  S_1  
     e(  3 -  3) =    -45.37402  eV     1   --> B_1  D_3  S_3  
     e(  4 -  4) =    -45.28362  eV     1   --> B_2  D_4  S_4  
     e(  5 -  5) =     14.70047  eV     1   --> A_1  D_1  S_1  
     e(  6 -  6) =     14.92767  eV     1   --> A_1  D_1  S_1  
     e(  7 -  7) =     15.73511  eV     1   --> B_1  D_3  S_3  
     e(  8 -  8) =     17.02524  eV     1   --> B_2  D_4  S_4  
     e(  9 -  9) =     17.73305  eV     1   --> A_2  D_2  S_2  
     e( 10 - 10) =     22.06243  eV     1   --> A_1  D_1  S_1  

 **************************************************************************

 **************************************************************************

                    xk=(  -0.67500,   0.67500,   0.00000  )

     Band symmetry, C_2v (mm2)  point group:

     e(  1 -  1) =    -84.90418  eV     1   --> A_1  D_1  S_1  
     e(  2 -  2) =    -45.38619  eV     1   --> B_1  D_3  S_3  
     e(  3 -  3) =    -45.38275  eV     1   --> A_1  D_1  S_1  
     e(  4 -  4) =    -45.28895  eV     1   --> B_2  D_4  S_4  
     e(  5 -  5) =     14.69444  eV     1   --> A_1  D_1  S_1  
     e(  6 -  6) =     14.76732  eV     1   --> A_1  D_1  S_1  
     e(  7 -  7) =     15.90709  eV     1   --> B_1  D_3  S_3  
     e(  8 -  8) =     17.13797  eV     1   --> B_2  D_4  S_4  
     e(  9 -  9) =     17.83582  eV     1   --> A_2  D_2  S_2  
     e( 10 - 10) =     23.05028  eV     1   --> A_1  D_1  S_1  

 **************************************************************************

 **************************************************************************

                    xk=(  -0.71250,   0.71250,   0.00000  )

     Band symmetry, C_2v (mm2)  point group:

     e(  1 -  1) =    -84.90324  eV     1   --> A_1  D_1  S_1  
     e(  2 -  2) =    -45.39772  eV     1   --> B_1  D_3  S_3  
     e(  3 -  3) =    -45.37367  eV     1   --> A_1  D_1  S_1  
     e(  4 -  4) =    -45.29409  eV     1   --> B_2  D_4  S_4  
     e(  5 -  5) =     14.50335  eV     1   --> A_1  D_1  S_1  
     e(  6 -  6) =     14.73193  eV     1   --> A_1  D_1  S_1  
     e(  7 -  7) =     16.11620  eV     1   --> B_1  D_3  S_3  
     e(  8 -  8) =     17.26294  eV     1   --> B_2  D_4  S_4  
     e(  9 -  9) =     17.92992  eV     1   --> A_2  D_2  S_2  
     e( 10 - 10) =     24.12767  eV     1   --> A_1  D_1  S_1  

 **************************************************************************

 **************************************************************************

                    xk=(  -0.75000,   0.75000,   0.00000  )

     Band symmetry, C_2v (mm2)  point group:

     e(  1 -  1) =    -84.90257  eV     1   --> A_1  D_1  S_1  
     e(  2 -  2) =    -45.40840  eV     1   --> B_1  D_3  S_3  
     e(  3 -  3) =    -45.36347  eV     1   --> A_1  D_1  S_1  
     e(  4 -  4) =    -45.29894  eV     1   --> B_2  D_4  S_4  
     e(  5 -  5) =     14.30501  eV     1   --> A_1  D_1  S_1  
     e(  6 -  6) =     14.66945  eV     1   --> A_1  D_1  S_1  
     e(  7 -  7) =     16.36181  eV     1   --> B_1  D_3  S_3  
     e(  8 -  8) =     17.39519  eV     1   --> B_2  D_4  S_4  
     e(  9 -  9) =     18.01433  eV     1   --> A_2  D_2  S_2  
     e( 10 - 10) =     23.74044  eV     1   --> B_1  D_3  S_3  

 **************************************************************************

     BANDS        :      2.70s CPU      2.74s WALL


   This run was terminated on:  14:41: 4  19Apr2021            

=------------------------------------------------------------------------------=
   JOB DONE.
=------------------------------------------------------------------------------=
