
     Program CP v.6.7MaX starts on 20Apr2021 at 21:58:49 

     This program is part of the open-source Quantum ESPRESSO suite
     for quantum simulation of materials; please cite
         "P. Giannozzi et al., J. Phys.:Condens. Matter 21 395502 (2009);
         "P. Giannozzi et al., J. Phys.:Condens. Matter 29 465901 (2017);
          URL http://www.quantum-espresso.org", 
     in publications or presentations arising from this work. More details at
     http://www.quantum-espresso.org/quote

     Parallel version (MPI), running on    12 processors

     MPI processes distributed on     1 nodes
     R & G space division:  proc/nbgrp/npool/nimage =      12
     Reading input from ../water8.in.4.NVE
Warning: card  &CELL ignored
Warning: card     CELL_DYNAMICS = 'NONE', ignored
Warning: card  / ignored

   Job Title: Water 8 molecules


   Atomic Pseudopotentials Parameters
   ----------------------------------

   Reading pseudopotential for specie #  1 from file :
   ./O_ONCV_PBE-1.2.upf
     Message from routine read_pp_mesh:
     mesh size missing, using the one in header
   file type is xml

   Reading pseudopotential for specie #  2 from file :
   ./H_ONCV_PBE-1.2.upf
     Message from routine read_pp_mesh:
     mesh size missing, using the one in header
   file type is xml


   Main Simulation Parameters (from input)
   ---------------------------------------
   Restart Mode       =       1   restart        
   Number of MD Steps =   10000
   Print out every           10 MD Steps
   Reads from unit    =      53
   Writes to unit     =      54
   MD Simulation time step            =       5.00
   Electronic fictitious mass (emass) =      50.00
   emass cut-off                      =       2.50

   Simulation Cell Parameters (from input)
   external pressure       =            0.00 [KBar]
   wmass (calculated)      =        19964.81 [AU]
   ibrav =    1
   alat  =    13.00000000
   a1    =    13.00000000    0.00000000    0.00000000
   a2    =     0.00000000   13.00000000    0.00000000
   a3    =     0.00000000    0.00000000   13.00000000

   b1    =     0.07692308    0.00000000    0.00000000
   b2    =     0.00000000    0.07692308    0.00000000
   b3    =     0.00000000    0.00000000    0.07692308
   omega =    2197.00000000

   Energy Cut-offs
   ---------------
   Ecutwfc =   50.0 Ry,      Ecutrho =  200.0 Ry,      Ecuts =  200.0 Ry
   Gcutwfc =   14.6     ,    Gcutrho =   29.3          Gcuts =   29.3
   NOTA BENE: refg, mmx =   0.050000  4800
   Eigenvalues calculated without the kinetic term contribution
   Orthog. with lagrange multipliers : eps =   0.10E-08,  max = 300
   Electron dynamics with newton equations
   Electron dynamics : the temperature is not controlled

   Electronic states
   -----------------
   Number of Electrons=    64, of States =    32
   Occupation numbers :
   2.00 2.00 2.00 2.00 2.00 2.00 2.00 2.00 2.00 2.00
   2.00 2.00 2.00 2.00 2.00 2.00 2.00 2.00 2.00 2.00
   2.00 2.00 2.00 2.00 2.00 2.00 2.00 2.00 2.00 2.00
   2.00 2.00


   Exchange and correlations functionals
   -------------------------------------
     Exchange-correlation= PBE
                           (   1   4   3   4   0   0   0)


   Ions Simulation Parameters
   --------------------------
   Ions are allowed to move
   Ions dynamics with newton equations
   the temperature is computed for    72 degrees of freedom
   ion dynamics with fricp =  0.0000 and greasp =  1.0000
   Ionic position (from input)
   sorted by specie, and converted to real a.u. coordinates
   Species   1 atoms =    8 mass =     29166.22 (a.u.),        16.00 (amu) rcmax =   0.50 (a.u.)
        4.842510     3.796199     3.732738
        3.735657    -4.474700     2.924274
       -4.546686    -3.542262     3.060744
       -3.436506     4.804268     3.377234
        3.614420    -4.282746    -3.989998
       -4.437095    -4.025366    -4.085110
       -3.558789     3.877301    -3.819233
        3.837783     3.820409    -4.507997
   Species   2 atoms =   16 mass =      1837.29 (a.u.),         1.01 (amu) rcmax =   0.50 (a.u.)
        4.004590     5.986780     3.533013
        4.365118     3.872322     5.879773
        6.059148    -3.795031     3.153403
        2.874962    -3.958672     4.675187
       -3.748838    -5.811626     3.320758
       -4.053948    -2.574364     4.768354
       -5.904151     4.217430     3.801415
       -2.303077     4.672005     5.082136
        3.119866    -4.561070    -2.002200
        5.914480    -3.952983    -3.866628
       -3.950822    -3.684809    -2.102720
       -3.940399    -6.190475    -4.165351
       -3.233219     3.435242    -1.818055
       -5.690475     3.479664    -3.789435
        2.013136     3.092241    -3.913112
        3.659354     6.200317    -4.387039
   Ionic position will be re-read from restart file

   All atoms are allowed to move
   Ionic temperature is not controlled


   Cell Dynamics Parameters (from STDIN)
   -------------------------------------
   Starting cell generated from CELLDM
   Cell parameters will be re-read from restart file
   Constant VOLUME Molecular dynamics
   cell parameters are not allowed to move

   Verbosity: iverbosity =  0



   Simulation dimensions initialization
   ------------------------------------

   unit vectors of full simulation cell
   in real space:                         in reciprocal space (units 2pi/alat):
   1    13.0000    0.0000    0.0000              1.0000    0.0000    0.0000
   2     0.0000   13.0000    0.0000              0.0000    1.0000    0.0000
   3     0.0000    0.0000   13.0000              0.0000    0.0000    1.0000

     Parallelization info
     --------------------
     sticks:   dense  smooth     PW     G-vecs:    dense   smooth      PW
     Min         224     224     55                 8748     8748    1096
     Max         226     226     58                 8754     8754    1104
     Sum        2701    2701    673               105015   105015   13205


   Real Mesh
   ---------
   Global Dimensions   Local  Dimensions   Processor Grid
   .X.   .Y.   .Z.     .X.   .Y.   .Z.     .X.   .Y.   .Z.
    60    60    60      60    60     5       1     1    12
   Array leading dimensions ( nr1x, nr2x, nr3x )   =     60    60    60
   Local number of cell to store the grid ( nrxx ) =      18000
   Number of x-y planes for each processors: 
  |  60,   5  |  60,   5  |  60,   5  |  60,   5  |  60,   5
  |  60,   5  |  60,   5  |  60,   5  |  60,   5  |  60,   5
  |  60,   5  |  60,   5  |

   Smooth Real Mesh
   ----------------
   Global Dimensions   Local  Dimensions   Processor Grid
   .X.   .Y.   .Z.     .X.   .Y.   .Z.     .X.   .Y.   .Z.
    60    60    60      60    60     5       1     1    12
   Array leading dimensions ( nr1x, nr2x, nr3x )   =     60    60    60
   Local number of cell to store the grid ( nrxx ) =      18000
   Number of x-y planes for each processors: 
  |  60,   5  |  60,   5  |  60,   5  |  60,   5  |  60,   5
  |  60,   5  |  60,   5  |  60,   5  |  60,   5  |  60,   5
  |  60,   5  |  60,   5  |

   Reciprocal Space Mesh
   ---------------------
   Large Mesh
     Global(ngm_g)    MinLocal       MaxLocal      Average
          52508           4374           4377        4375.67
   Smooth Mesh
     Global(ngms_g)   MinLocal       MaxLocal      Average
          52508           4374           4377        4375.67
   Wave function Mesh
     Global(ngw_g)    MinLocal       MaxLocal      Average
           6603            548            552         550.25


   System geometry initialization
   ------------------------------
   cell parameters read from restart file
   ibrav =    1       cell parameters 


   cell at current step : h(t)
      13.00000       0.00000       0.00000
       0.00000      13.00000       0.00000
       0.00000       0.00000      13.00000

   cell at previous step : h(t-dt)
      13.00000       0.00000       0.00000
       0.00000      13.00000       0.00000
       0.00000       0.00000      13.00000


   Matrix Multiplication Performances
   ortho mmul, time for parallel driver      =   0.00006 with    1 procs

   Constraints matrixes will be distributed block like on
   ortho sub-group =    1*   1 procs



   Pseudopotentials initialization
   -------------------------------


   Common initialization

   Specie:     1
   1  indv=  1   ang. mom=  0
   2  indv=  2   ang. mom=  0
   3  indv=  3   ang. mom=  1
   4  indv=  3   ang. mom=  1
   5  indv=  3   ang. mom=  1
   6  indv=  4   ang. mom=  1
   7  indv=  4   ang. mom=  1
   8  indv=  4   ang. mom=  1

                        dion 
   9.7572   0.0000   0.0000   0.0000
   0.0000   1.3761   0.0000   0.0000
   0.0000   0.0000  -4.8069   0.0000
   0.0000   0.0000   0.0000  -1.6162

   Specie:     2
   1  indv=  1   ang. mom=  0
   2  indv=  2   ang. mom=  0

                        dion 
 -12.0082   0.0000
   0.0000  -0.5168

   Cell parameters from input file are used in electron mass preconditioning
   init_tpiba2=    0.23360010

   Short Legend and Physical Units in the Output
   ---------------------------------------------
   NFI    [int]          - step index
   EKINC  [HARTREE A.U.] - kinetic energy of the fictitious electronic dynamics
   TEMPH  [K]            - Temperature of the fictitious cell dynamics
   TEMP   [K]            - Ionic temperature
   ETOT   [HARTREE A.U.] - Scf total energy (Kohn-Sham hamiltonian)
   ENTHAL [HARTREE A.U.] - Enthalpy ( ETOT + P * V )
   ECONS  [HARTREE A.U.] - Enthalpy + kinetic energy of ions and cell
   ECONT  [HARTREE A.U.] - Constant of motion for the CP lagrangian


   formf: eself=   242.55691
   formf:     vps(g=0)=  -0.0005593     rhops(g=0)=  -0.0026914
   formf:     vps(g=0)=  -0.0005508     rhops(g=0)=  -0.0026524
   formf:     vps(g=0)=  -0.0005508     rhops(g=0)=  -0.0026524
   formf:     vps(g=0)=  -0.0005265     rhops(g=0)=  -0.0025387
   formf:     vps(g=0)=  -0.0005265     rhops(g=0)=  -0.0025387
   formf: sum_g vps(g)=  -0.8825069 sum_g rhops(g)=  -4.3113902
   formf:     vps(g=0)=  -0.0002744     rhops(g=0)=  -0.0004486
   formf:     vps(g=0)=  -0.0002718     rhops(g=0)=  -0.0004421
   formf:     vps(g=0)=  -0.0002718     rhops(g=0)=  -0.0004421
   formf:     vps(g=0)=  -0.0002644     rhops(g=0)=  -0.0004231
   formf:     vps(g=0)=  -0.0002644     rhops(g=0)=  -0.0004231
   formf: sum_g vps(g)=  -1.1488875 sum_g rhops(g)=  -0.7185650
   Delta V(G=0):   0.022861Ry,    0.622068eV

  nfi     ekinc              temph  tempp     etot                 enthal               econs                econt              vnhh    xnhh0   vnhp    xnhp0
   2102    0.001505896182421    0.0  672.19    -137.006114802609    -137.006114802609    -136.929481101972    -136.927975205790   0.0000   0.0000   0.0000   0.0000
   2103    0.001524032217265    0.0  690.86    -137.008265115943    -137.008265115943    -136.929503085030    -136.927979052813   0.0000   0.0000   0.0000   0.0000
   2104    0.001587245071243    0.0  707.86    -137.010264690113    -137.010264690113    -136.929564666247    -136.927977421176   0.0000   0.0000   0.0000   0.0000
   2105    0.001679476575159    0.0  722.84    -137.012068164347    -137.012068164347    -136.929661193554    -136.927981716979   0.0000   0.0000   0.0000   0.0000
   2106    0.001734878199857    0.0  735.89    -137.013617094007    -137.013617094007    -136.929722053509    -136.927987175309   0.0000   0.0000   0.0000   0.0000
   2107    0.001719746490654    0.0  746.91    -137.014859461761    -137.014859461761    -136.929708116433    -136.927988369942   0.0000   0.0000   0.0000   0.0000
   2108    0.001682898418179    0.0  755.21    -137.015770635314    -137.015770635314    -136.929672803668    -136.927989905249   0.0000   0.0000   0.0000   0.0000
   2109    0.001687790083154    0.0  759.99    -137.016321250153    -137.016321250153    -136.929677859233    -136.927990069150   0.0000   0.0000   0.0000   0.0000
   2110    0.001740949196696    0.0  761.05    -137.016493213378    -137.016493213378    -136.929729218122    -136.927988268925   0.0000   0.0000   0.0000   0.0000

   writing restart file (with schema): ./h2o_54.save/
     restart      :      0.02s CPU      0.03s WALL (       1 calls)
   2111    0.001788980664859    0.0  758.85    -137.016290623566    -137.016290623566    -136.929777473811    -136.927988493146   0.0000   0.0000   0.0000   0.0000
   2112    0.001772004591007    0.0  753.96    -137.015715680586    -137.015715680586    -136.929759984943    -136.927987980352   0.0000   0.0000   0.0000   0.0000
   2113    0.001691144709934    0.0  746.50    -137.014781137606    -137.014781137606    -136.929676164213    -136.927985019503   0.0000   0.0000   0.0000   0.0000
   2114    0.001606069386257    0.0  736.17    -137.013517584260    -137.013517584260    -136.929589850186    -136.927983780800   0.0000   0.0000   0.0000   0.0000
   2115    0.001566727951810    0.0  722.79    -137.011949974993    -137.011949974993    -136.929547969058    -136.927981241106   0.0000   0.0000   0.0000   0.0000
   2116    0.001574103066523    0.0  706.67    -137.010116091199    -137.010116091199    -136.929551483310    -136.927977380244   0.0000   0.0000   0.0000   0.0000
   2117    0.001586675587278    0.0  688.61    -137.008066621642    -137.008066621642    -136.929561241952    -136.927974566365   0.0000   0.0000   0.0000   0.0000
   2118    0.001559414085100    0.0  669.44    -137.005849183621    -137.005849183621    -136.929529403774    -136.927969989689   0.0000   0.0000   0.0000   0.0000
   2119    0.001491249932948    0.0  649.68    -137.003523182619    -137.003523182619    -136.929456506331    -136.927965256398   0.0000   0.0000   0.0000   0.0000
   2120    0.001420207084912    0.0  629.52    -137.001151189673    -137.001151189673    -136.929382441055    -136.927962233971   0.0000   0.0000   0.0000   0.0000

   writing restart file (with schema): ./h2o_54.save/
     restart      :      0.04s CPU      0.10s WALL (       2 calls)
   2121    0.001378464983658    0.0  609.19    -136.998787694233    -136.998787694233    -136.929337211180    -136.927958746196   0.0000   0.0000   0.0000   0.0000
   2122    0.001364657989104    0.0  589.20    -136.996490862085    -136.996490862085    -136.929319525490    -136.927954867501   0.0000   0.0000   0.0000   0.0000
   2123    0.001348667727284    0.0  570.30    -136.994318113403    -136.994318113403    -136.929300586353    -136.927951918626   0.0000   0.0000   0.0000   0.0000
   2124    0.001305420458302    0.0  553.15    -136.992315294212    -136.992315294212    -136.929253462659    -136.927948042201   0.0000   0.0000   0.0000   0.0000
   2125    0.001246376594448    0.0  538.01    -136.990527786013    -136.990527786013    -136.929191732066    -136.927945355471   0.0000   0.0000   0.0000   0.0000
   2126    0.001202407085972    0.0  524.91    -136.988990637573    -136.988990637573    -136.929147589623    -136.927945182537   0.0000   0.0000   0.0000   0.0000
   2127    0.001188735259864    0.0  513.91    -136.987721860529    -136.987721860529    -136.929133199310    -136.927944464050   0.0000   0.0000   0.0000   0.0000
   2128    0.001197092115051    0.0  505.20    -136.986737159444    -136.986737159444    -136.929141596073    -136.927944503958   0.0000   0.0000   0.0000   0.0000
   2129    0.001206824695624    0.0  498.99    -136.986039446389    -136.986039446389    -136.929151622803    -136.927944798108   0.0000   0.0000   0.0000   0.0000
   2130    0.001206551858145    0.0  495.32    -136.985620960946    -136.985620960946    -136.929151502519    -136.927944950661   0.0000   0.0000   0.0000   0.0000

   writing restart file (with schema): ./h2o_54.save/
     restart      :      0.06s CPU      0.23s WALL (       3 calls)
   2131    0.001203338961309    0.0  494.02    -136.985470072162    -136.985470072162    -136.929149667019    -136.927946328057   0.0000   0.0000   0.0000   0.0000
   2132    0.001209136804360    0.0  494.79    -136.985566796995    -136.985566796995    -136.929157710550    -136.927948573745   0.0000   0.0000   0.0000   0.0000
   2133    0.001227939339054    0.0  497.40    -136.985884732754    -136.985884732754    -136.929178685222    -136.927950745883   0.0000   0.0000   0.0000   0.0000
   2134    0.001255123979757    0.0  501.63    -136.986395835516    -136.986395835516    -136.929207520032    -136.927952396053   0.0000   0.0000   0.0000   0.0000
   2135    0.001282513087083    0.0  507.30    -136.987071971615    -136.987071971615    -136.929236912722    -136.927954399635   0.0000   0.0000   0.0000   0.0000
   2136    0.001305325995610    0.0  514.19    -136.987881851669    -136.987881851669    -136.929261106145    -136.927955780149   0.0000   0.0000   0.0000   0.0000
   2137    0.001327610989455    0.0  522.02    -136.988798303947    -136.988798303947    -136.929285163914    -136.927957552924   0.0000   0.0000   0.0000   0.0000
   2138    0.001354933038561    0.0  530.50    -136.989794078162    -136.989794078162    -136.929314554981    -136.927959621942   0.0000   0.0000   0.0000   0.0000
   2139    0.001385992176682    0.0  539.41    -136.990842387640    -136.990842387640    -136.929347336960    -136.927961344783   0.0000   0.0000   0.0000   0.0000
   2140    0.001414427962603    0.0  548.59    -136.991919762871    -136.991919762871    -136.929377716990    -136.927963289028   0.0000   0.0000   0.0000   0.0000

   writing restart file (with schema): ./h2o_54.save/
     restart      :      0.08s CPU      0.29s WALL (       4 calls)
   2141    0.001437562444140    0.0  557.87    -136.993001981263    -136.993001981263    -136.929401966734    -136.927964404290   0.0000   0.0000   0.0000   0.0000
   2142    0.001461997173572    0.0  567.00    -136.994068543218    -136.994068543218    -136.929427635877    -136.927965638703   0.0000   0.0000   0.0000   0.0000
   2143    0.001493014336849    0.0  575.75    -136.995098574791    -136.995098574791    -136.929459970478    -136.927966956141   0.0000   0.0000   0.0000   0.0000
   2144    0.001524283668951    0.0  584.01    -136.996072592244    -136.996072592244    -136.929492753046    -136.927968469377   0.0000   0.0000   0.0000   0.0000
   2145    0.001544882571700    0.0  591.71    -136.996973135059    -136.996973135059    -136.929514877404    -136.927969994832   0.0000   0.0000   0.0000   0.0000
   2146    0.001555584084887    0.0  598.73    -136.997784421801    -136.997784421801    -136.929526594552    -136.927971010467   0.0000   0.0000   0.0000   0.0000
   2147    0.001570869023444    0.0  604.81    -136.998493658013    -136.998493658013    -136.929542394177    -136.927971525154   0.0000   0.0000   0.0000   0.0000
   2148    0.001599912818480    0.0  609.80    -136.999092130555    -136.999092130555    -136.929571592016    -136.927971679197   0.0000   0.0000   0.0000   0.0000
   2149    0.001631327469449    0.0  613.77    -136.999576690053    -136.999576690053    -136.929603609247    -136.927972281778   0.0000   0.0000   0.0000   0.0000
   2150    0.001645641248938    0.0  616.90    -136.999947573229    -136.999947573229    -136.929617711340    -136.927972070092   0.0000   0.0000   0.0000   0.0000

   writing restart file (with schema): ./h2o_54.save/
     restart      :      0.09s CPU      0.38s WALL (       5 calls)
   2151    0.001641908359235    0.0  619.28    -137.000214445214    -137.000214445214    -136.929613387684    -136.927971479325   0.0000   0.0000   0.0000   0.0000
   2152    0.001638021690070    0.0  620.88    -137.000392129240    -137.000392129240    -136.929608385410    -136.927970363720   0.0000   0.0000   0.0000   0.0000
   2153    0.001647124541955    0.0  621.77    -137.000500675129    -137.000500675129    -136.929615705650    -136.927968581108   0.0000   0.0000   0.0000   0.0000
   2154    0.001662865822117    0.0  622.22    -137.000566852974    -137.000566852974    -136.929630089207    -136.927967223385   0.0000   0.0000   0.0000   0.0000
   2155    0.001670658636247    0.0  622.62    -137.000617976898    -137.000617976898    -136.929636283258    -136.927965624621   0.0000   0.0000   0.0000   0.0000
   2156    0.001669043448236    0.0  623.22    -137.000683087836    -137.000683087836    -136.929633214563    -136.927964171115   0.0000   0.0000   0.0000   0.0000
   2157    0.001668602710418    0.0  624.16    -137.000788552903    -137.000788552903    -136.929631505514    -136.927962902803   0.0000   0.0000   0.0000   0.0000
   2158    0.001674964542749    0.0  625.57    -137.000955760909    -137.000955760909    -136.929637295236    -136.927962330693   0.0000   0.0000   0.0000   0.0000
   2159    0.001683966931387    0.0  627.61    -137.001197485354    -137.001197485354    -136.929646570813    -136.927962603882   0.0000   0.0000   0.0000   0.0000
   2160    0.001693567554895    0.0  630.31    -137.001516082051    -137.001516082051    -136.929657040242    -136.927963472688   0.0000   0.0000   0.0000   0.0000

   writing restart file (with schema): ./h2o_54.save/
     restart      :      0.11s CPU      0.44s WALL (       6 calls)
   2161    0.001708809930539    0.0  633.57    -137.001903708155    -137.001903708155    -136.929673895747    -136.927965085816   0.0000   0.0000   0.0000   0.0000
   2162    0.001729770260987    0.0  637.20    -137.002341412728    -137.002341412728    -136.929696807466    -136.927967037205   0.0000   0.0000   0.0000   0.0000
   2163    0.001745368402504    0.0  641.09    -137.002802199700    -137.002802199700    -136.929714931680    -136.927969563277   0.0000   0.0000   0.0000   0.0000
   2164    0.001747085285230    0.0  644.99    -137.003252012043    -137.003252012043    -136.929719309483    -136.927972224198   0.0000   0.0000   0.0000   0.0000
   2165    0.001743198540308    0.0  648.53    -137.003654450683    -137.003654450683    -136.929718302597    -136.927975104057   0.0000   0.0000   0.0000   0.0000
   2166    0.001748043171239    0.0  651.26    -137.003973148681    -137.003973148681    -136.929725595781    -136.927977552610   0.0000   0.0000   0.0000   0.0000
   2167    0.001760795709795    0.0  652.93    -137.004177474010    -137.004177474010    -136.929739965341    -136.927979169632   0.0000   0.0000   0.0000   0.0000
   2168    0.001764991482396    0.0  653.49    -137.004245843010    -137.004245843010    -136.929745041126    -136.927980049643   0.0000   0.0000   0.0000   0.0000
   2169    0.001751070091875    0.0  652.92    -137.004166837620    -137.004166837620    -136.929730730374    -136.927979660282   0.0000   0.0000   0.0000   0.0000
   2170    0.001729174785035    0.0  651.16    -137.003944066151    -137.003944066151    -136.929708205010    -136.927979030225   0.0000   0.0000   0.0000   0.0000

   writing restart file (with schema): ./h2o_54.save/
     restart      :      0.13s CPU      0.51s WALL (       7 calls)
   2171    0.001711874220373    0.0  648.24    -137.003592123429    -137.003592123429    -136.929689449878    -136.927977575657   0.0000   0.0000   0.0000   0.0000
   2172    0.001696894992985    0.0  644.41    -137.003138397585    -137.003138397585    -136.929672046313    -136.927975151320   0.0000   0.0000   0.0000   0.0000
   2173    0.001673583091714    0.0  640.10    -137.002620649259    -137.002620649259    -136.929645791052    -136.927972207961   0.0000   0.0000   0.0000   0.0000
   2174    0.001640520675464    0.0  635.70    -137.002081916604    -137.002081916604    -136.929609300960    -136.927968780284   0.0000   0.0000   0.0000   0.0000
   2175    0.001608226535733    0.0  631.51    -137.001569587490    -137.001569587490    -136.929574027297    -136.927965800762   0.0000   0.0000   0.0000   0.0000
   2176    0.001583509421532    0.0  627.89    -137.001129200761    -137.001129200761    -136.929546755378    -136.927963245956   0.0000   0.0000   0.0000   0.0000
   2177    0.001562443283905    0.0  625.21    -137.000800708450    -137.000800708450    -136.929523587051    -136.927961143767   0.0000   0.0000   0.0000   0.0000
   2178    0.001541046603969    0.0  623.78    -137.000614815403    -137.000614815403    -136.929500639663    -136.927959593059   0.0000   0.0000   0.0000   0.0000
   2179    0.001523548960640    0.0  623.72    -137.000590763560    -137.000590763560    -136.929482896907    -136.927959347947   0.0000   0.0000   0.0000   0.0000
   2180    0.001515397789700    0.0  625.04    -137.000732805805    -137.000732805805    -136.929475461389    -136.927960063599   0.0000   0.0000   0.0000   0.0000

   writing restart file (with schema): ./h2o_54.save/
     restart      :      0.15s CPU      0.59s WALL (       8 calls)
   2181    0.001514893075596    0.0  627.65    -137.001032011262    -137.001032011262    -136.929476421664    -136.927961528588   0.0000   0.0000   0.0000   0.0000
   2182    0.001515205469930    0.0  631.44    -137.001466227849    -137.001466227849    -136.929478996190    -136.927963790720   0.0000   0.0000   0.0000   0.0000
   2183    0.001513395553264    0.0  636.12    -137.002000582801    -137.002000582801    -136.929479571527    -136.927966175974   0.0000   0.0000   0.0000   0.0000
   2184    0.001513592056630    0.0  641.29    -137.002593968647    -137.002593968647    -136.929483007106    -136.927969415049   0.0000   0.0000   0.0000   0.0000
   2185    0.001519133388663    0.0  646.52    -137.003198321032    -137.003198321032    -136.929491753312    -136.927972619923   0.0000   0.0000   0.0000   0.0000
   2186    0.001528414805891    0.0  651.39    -137.003765154932    -137.003765154932    -136.929503760368    -136.927975345562   0.0000   0.0000   0.0000   0.0000
   2187    0.001536956869758    0.0  655.54    -137.004249983539    -137.004249983539    -136.929514676195    -136.927977719325   0.0000   0.0000   0.0000   0.0000
   2188    0.001540646744338    0.0  658.69    -137.004614220052    -137.004614220052    -136.929520121408    -136.927979474663   0.0000   0.0000   0.0000   0.0000
   2189    0.001538863867124    0.0  660.58    -137.004829468970    -137.004829468970    -136.929519405778    -136.927980541911   0.0000   0.0000   0.0000   0.0000
   2190    0.001534627356994    0.0  661.06    -137.004879308101    -137.004879308101    -136.929515243810    -136.927980616453   0.0000   0.0000   0.0000   0.0000

   writing restart file (with schema): ./h2o_54.save/
     restart      :      0.16s CPU      0.67s WALL (       9 calls)
   2191    0.001530954125841    0.0  660.05    -137.004760253965    -137.004760253965    -136.929510896036    -136.927979941911   0.0000   0.0000   0.0000   0.0000
   2192    0.001526767702656    0.0  657.65    -137.004480349928    -137.004480349928    -136.929504982208    -136.927978214506   0.0000   0.0000   0.0000   0.0000
   2193    0.001518117432990    0.0  654.06    -137.004060602464    -137.004060602464    -136.929494198246    -136.927976080813   0.0000   0.0000   0.0000   0.0000
   2194    0.001502831090566    0.0  649.57    -137.003530255794    -137.003530255794    -136.929476443179    -136.927973612089   0.0000   0.0000   0.0000   0.0000
   2195    0.001484756930990    0.0  644.43    -137.002924113252    -137.002924113252    -136.929455481484    -136.927970724553   0.0000   0.0000   0.0000   0.0000
   2196    0.001471053283496    0.0  638.93    -137.002280730803    -137.002280730803    -136.929439176544    -136.927968123260   0.0000   0.0000   0.0000   0.0000
   2197    0.001464616296746    0.0  633.36    -137.001636780024    -137.001636780024    -136.929430248823    -136.927965632526   0.0000   0.0000   0.0000   0.0000
   2198    0.001463055430313    0.0  628.04    -137.001026032891    -137.001026032891    -136.929426643030    -136.927963587600   0.0000   0.0000   0.0000   0.0000
   2199    0.001462925928820    0.0  623.22    -137.000475812812    -137.000475812812    -136.929424979059    -136.927962053131   0.0000   0.0000   0.0000   0.0000

 * Physical Quantities at step:  2200

   from rhoofr: total integrated electronic density
   in g-space =     64.000000   in r-space =    64.000000


                total energy =     -137.00000532381 Hartree a.u.
              kinetic energy =       97.98322 Hartree a.u.
        electrostatic energy =     -185.47182 Hartree a.u.
                         esr =        0.01391 Hartree a.u.
                       eself =      242.55691 Hartree a.u.
      pseudopotential energy =       -9.43135 Hartree a.u.
  n-l pseudopotential energy =       -6.32568 Hartree a.u.
 exchange-correlation energy =      -33.75438 Hartree a.u.
           average potential =        0.00000 Hartree a.u.



   Eigenvalues (eV), kp =   1 , spin =  1

  -24.29  -23.26  -23.06  -22.91  -22.64  -22.48  -22.34  -22.23  -12.33  -11.18
  -10.99  -10.77  -10.50  -10.42  -10.24   -9.83   -7.99   -7.92   -7.64   -7.33
   -7.06   -6.69   -6.22   -5.94   -5.70   -5.26   -5.18   -5.06   -4.85   -4.64
   -4.57   -4.43


   CELL_PARAMETERS
   13.00000000    0.00000000    0.00000000
    0.00000000   13.00000000    0.00000000
    0.00000000    0.00000000   13.00000000

   System Density [g/cm^3] :              0.7351364820


   System Volume [A.U.^3] :           2197.0000000000


   Center of mass square displacement (a.u.):   0.000000

   ATOMIC_POSITIONS
   O       0.77627807761080E+01     0.32345139374036E+01     0.40521940127470E+01
   H       0.63610470425288E+01     0.44280168322171E+01     0.35846365126941E+01
   H       0.76339948638962E+01     0.18261397619409E+01     0.29676251047031E+01
   O       0.46959457543814E+01    -0.62703488374841E+01     0.22922010969859E+01
   H       0.53483985804342E+01    -0.46603650718930E+01     0.26619172035905E+01
   H       0.26130994034803E+01    -0.64884707029032E+01     0.26682946351613E+01
   O      -0.52403969374583E+01    -0.21187288031611E+01     0.29633500343510E+01
   H      -0.39616404269834E+01    -0.32458100416231E+01     0.20033096553201E+01
   H      -0.48918656045262E+01    -0.27226467846502E+01     0.48140767399106E+01
   O      -0.92041984448442E+00     0.59716747039862E+01     0.21259898043451E+01
   H      -0.21270530917748E+01     0.51408265144628E+01     0.32043723962989E+01
   H      -0.17346365900912E+01     0.56514465386294E+01     0.48255098993641E+00
   O       0.11564384353368E+01    -0.50101695981927E+01    -0.29034109235355E+01
   H       0.18698508526904E+01    -0.41666819339781E+01    -0.13391636875149E+01
   H       0.20682284526759E+01    -0.44941693340092E+01    -0.41975932218577E+01
   O      -0.60368191361320E+01    -0.25890375693373E+01    -0.49130390113807E+01
   H      -0.48288132066638E+01    -0.14624460335399E+01    -0.44036559862590E+01
   H      -0.56871320473262E+01    -0.42601753332972E+01    -0.43340912546021E+01
   O      -0.56774550412699E+01     0.55686180002446E+01    -0.30454725605640E+01
   H      -0.62084867783778E+01     0.57710858994547E+01    -0.12739996219340E+01
   H      -0.63697501440046E+01     0.41913801531988E+01    -0.40599014883669E+01
   O       0.43378008369619E+01     0.14004245832055E+01    -0.30202866740051E+01
   H       0.50891302612618E+01    -0.30491545534717E+00    -0.35848173839167E+01
   H       0.35893971646865E+01     0.18290871378148E+01    -0.46583386308392E+01

   ATOMIC_VELOCITIES
   O       0.32693918722004E-04     0.44914786088116E-04     0.16222579808268E-03
   H      -0.17707458094288E-02     0.46079774422976E-03    -0.34274816576771E-03
   H      -0.25997953654676E-03    -0.51076043750991E-03     0.10515865315750E-02
   O       0.18447647454181E-03    -0.41008322608950E-03    -0.21262390957035E-03
   H      -0.75989272699933E-03     0.13465954793601E-02    -0.11551650128256E-02
   H       0.71791071562774E-04     0.11331789044867E-02     0.15103899779149E-02
   O       0.20186050146020E-03    -0.11029960069858E-04     0.80585759134311E-04
   H       0.15408674697177E-02    -0.14735216242067E-03    -0.18450196656778E-03
   H      -0.15361831181553E-03     0.65315704634958E-03     0.13157870770612E-03
   O      -0.13239331525600E-03    -0.43900323479334E-04    -0.25203611187161E-03
   H      -0.43534882773877E-04    -0.10987182047777E-02     0.24922821609125E-03
   H       0.16144428351214E-03     0.25887797306448E-03     0.19124129157283E-02
   O      -0.91350073243451E-04    -0.71952686241716E-04     0.17162062120143E-03
   H       0.20878057007823E-02     0.21305091288222E-02    -0.48347008212263E-03
   H       0.38237903054697E-03     0.13475575813287E-02     0.10411947565701E-03
   O       0.10914001525225E-03     0.32100153631327E-03    -0.91030064666575E-04
   H      -0.88624320047287E-03    -0.46698264623504E-04     0.26507706856077E-03
   H       0.82781459866671E-04    -0.10483834645702E-02     0.15195953878106E-02
   O      -0.45676253920252E-03     0.10338306638907E-03    -0.20978464298754E-04
   H      -0.11832769542578E-02     0.18707434645634E-03     0.16286980315339E-02
   H      -0.19194371984441E-03    -0.19734849618182E-02    -0.25606848468025E-02
   O       0.17370889826792E-03    -0.11078833104761E-04     0.50540949440125E-05
   H       0.19779086565038E-02    -0.24374717242702E-02    -0.92130459383774E-03
   H      -0.13950441363446E-02     0.99517582600334E-03    -0.22960732604733E-03



   Partial temperatures (for each ionic specie) 
   Species  Temp (K)   Mean Square Displacement (a.u.)
        1   3.16E+02     6.8243E+00
        2   7.71E+02     1.1340E+01

  nfi     ekinc              temph  tempp     etot                 enthal               econs                econt              vnhh    xnhh0   vnhp    xnhp0
   2200    0.001462862303904    0.0  619.11    -137.000005323811    -137.000005323811    -136.929424024331    -136.927961162027   0.0000   0.0000   0.0000   0.0000

   writing restart file (with schema): ./h2o_54.save/
     restart      :      0.18s CPU      0.80s WALL (      10 calls)
   2201    0.001463293441965    0.0  615.77    -136.999625074704    -136.999625074704    -136.929424158604    -136.927960865162   0.0000   0.0000   0.0000   0.0000
   2202    0.001465463195824    0.0  613.22    -136.999337387233    -136.999337387233    -136.929426591862    -136.927961128667   0.0000   0.0000   0.0000   0.0000
   2203    0.001470989752874    0.0  611.41    -136.999136558256    -136.999136558256    -136.929432696622    -136.927961706869   0.0000   0.0000   0.0000   0.0000
   2204    0.001480616589689    0.0  610.22    -136.999011006659    -136.999011006659    -136.929442910236    -136.927962293646   0.0000   0.0000   0.0000   0.0000
   2205    0.001491464522752    0.0  609.55    -136.998946280017    -136.998946280017    -136.929454895278    -136.927963430755   0.0000   0.0000   0.0000   0.0000
   2206    0.001498117287167    0.0  609.29    -136.998924070738    -136.998924070738    -136.929462398894    -136.927964281607   0.0000   0.0000   0.0000   0.0000
   2207    0.001500724360268    0.0  609.29    -136.998927970200    -136.998927970200    -136.929465702370    -136.927964978010   0.0000   0.0000   0.0000   0.0000
   2208    0.001505748322527    0.0  609.37    -136.998943306491    -136.998943306491    -136.929471435784    -136.927965687461   0.0000   0.0000   0.0000   0.0000
   2209    0.001517086554754    0.0  609.39    -136.998957009749    -136.998957009749    -136.929482937203    -136.927965850648   0.0000   0.0000   0.0000   0.0000
   2210    0.001530329965201    0.0  609.32    -136.998961934374    -136.998961934374    -136.929496238134    -136.927965908169   0.0000   0.0000   0.0000   0.0000

   writing restart file (with schema): ./h2o_54.save/
     restart      :      0.20s CPU      0.92s WALL (      11 calls)
   2211    0.001536924603555    0.0  609.20    -136.998954713804    -136.998954713804    -136.929502624978    -136.927965700374   0.0000   0.0000   0.0000   0.0000
   2212    0.001534916424832    0.0  609.06    -136.998935586358    -136.998935586358    -136.929499967036    -136.927965050611   0.0000   0.0000   0.0000   0.0000
   2213    0.001531179786058    0.0  608.87    -136.998909170978    -136.998909170978    -136.929495310289    -136.927964130503   0.0000   0.0000   0.0000   0.0000
   2214    0.001530661923404    0.0  608.65    -136.998883425800    -136.998883425800    -136.929494229895    -136.927963567971   0.0000   0.0000   0.0000   0.0000
   2215    0.001529656098047    0.0  608.51    -136.998866266044    -136.998866266044    -136.929492488630    -136.927962832532   0.0000   0.0000   0.0000   0.0000
   2216    0.001524509127827    0.0  608.58    -136.998867622358    -136.998867622358    -136.929486442766    -136.927961933638   0.0000   0.0000   0.0000   0.0000
   2217    0.001518856086579    0.0  608.89    -136.998897335732    -136.998897335732    -136.929480274149    -136.927961418062   0.0000   0.0000   0.0000   0.0000
   2218    0.001517993420043    0.0  609.47    -136.998961107037    -136.998961107037    -136.929478723586    -136.927960730166   0.0000   0.0000   0.0000   0.0000
   2219    0.001521152576321    0.0  610.34    -136.999063930690    -136.999063930690    -136.929481778279    -136.927960625703   0.0000   0.0000   0.0000   0.0000
   2220    0.001521909137766    0.0  611.58    -136.999206430207    -136.999206430207    -136.929482968102    -136.927961058964   0.0000   0.0000   0.0000   0.0000

   writing restart file (with schema): ./h2o_54.save/
     restart      :      0.22s CPU      0.98s WALL (      12 calls)
   2221    0.001518479020986    0.0  613.17    -136.999384239220    -136.999384239220    -136.929480007027    -136.927961528006   0.0000   0.0000   0.0000   0.0000
   2222    0.001517876086781    0.0  614.97    -136.999590028005    -136.999590028005    -136.929480029530    -136.927962153443   0.0000   0.0000   0.0000   0.0000
   2223    0.001524984185431    0.0  616.85    -136.999812516228    -136.999812516228    -136.929488089374    -136.927963105189   0.0000   0.0000   0.0000   0.0000
   2224    0.001534135380590    0.0  618.72    -137.000036242203    -137.000036242203    -136.929498417881    -136.927964282500   0.0000   0.0000   0.0000   0.0000
   2225    0.001536985492340    0.0  620.51    -137.000243544476    -137.000243544476    -136.929502518564    -136.927965533071   0.0000   0.0000   0.0000   0.0000
   2226    0.001533740424465    0.0  622.03    -137.000416003536    -137.000416003536    -136.929500788450    -136.927967048025   0.0000   0.0000   0.0000   0.0000
   2227    0.001531158955412    0.0  623.08    -137.000534058479    -137.000534058479    -136.929499384295    -136.927968225339   0.0000   0.0000   0.0000   0.0000
   2228    0.001532257568983    0.0  623.48    -137.000581035561    -137.000581035561    -136.929501590887    -136.927969333318   0.0000   0.0000   0.0000   0.0000
   2229    0.001532351823839    0.0  623.13    -137.000542721158    -137.000542721158    -136.929502552391    -136.927970200567   0.0000   0.0000   0.0000   0.0000
   2230    0.001527697387711    0.0  622.00    -137.000409229183    -137.000409229183    -136.929498207951    -136.927970510563   0.0000   0.0000   0.0000   0.0000

   writing restart file (with schema): ./h2o_54.save/
     restart      :      0.24s CPU      1.05s WALL (      13 calls)
   2231    0.001521307064823    0.0  620.02    -137.000177641612    -137.000177641612    -136.929491888802    -136.927970581737   0.0000   0.0000   0.0000   0.0000
   2232    0.001515756867998    0.0  617.21    -136.999851137749    -136.999851137749    -136.929485737953    -136.927969981085   0.0000   0.0000   0.0000   0.0000
   2233    0.001507233395309    0.0  613.70    -136.999441657196    -136.999441657196    -136.929476159894    -136.927968926498   0.0000   0.0000   0.0000   0.0000
   2234    0.001491174629601    0.0  609.71    -136.998968772428    -136.998968772428    -136.929458477623    -136.927967302993   0.0000   0.0000   0.0000   0.0000
   2235    0.001471504961850    0.0  605.44    -136.998459645012    -136.998459645012    -136.929436785228    -136.927965280266   0.0000   0.0000   0.0000   0.0000
   2236    0.001457042543296    0.0  601.09    -136.997947598019    -136.997947598019    -136.929420070908    -136.927963028365   0.0000   0.0000   0.0000   0.0000
   2237    0.001448970927493    0.0  597.00    -136.997470420555    -136.997470420555    -136.929409462808    -136.927960491880   0.0000   0.0000   0.0000   0.0000
   2238    0.001439239716096    0.0  593.58    -136.997069060565    -136.997069060565    -136.929397295787    -136.927958056071   0.0000   0.0000   0.0000   0.0000
   2239    0.001423494477680    0.0  591.24    -136.996783430554    -136.996783430554    -136.929379238926    -136.927955744448   0.0000   0.0000   0.0000   0.0000
   2240    0.001410000280851    0.0  590.20    -136.996650112053    -136.996650112053    -136.929363991943    -136.927953991662   0.0000   0.0000   0.0000   0.0000

   writing restart file (with schema): ./h2o_54.save/
     restart      :      0.26s CPU      1.12s WALL (      14 calls)
   2241    0.001409375643350    0.0  590.64    -136.996698522356    -136.996698522356    -136.929362303804    -136.927952928160   0.0000   0.0000   0.0000   0.0000
   2242    0.001419543496409    0.0  592.75    -136.996948460703    -136.996948460703    -136.929372263876    -136.927952720379   0.0000   0.0000   0.0000   0.0000
   2243    0.001428553870571    0.0  596.69    -136.997407524016    -136.997407524016    -136.929381739081    -136.927953185211   0.0000   0.0000   0.0000   0.0000
   2244    0.001432158099493    0.0  602.47    -136.998070933514    -136.998070933514    -136.929386572050    -136.927954413950   0.0000   0.0000   0.0000   0.0000
   2245    0.001439745543547    0.0  609.84    -136.998920925466    -136.998920925466    -136.929396462272    -136.927956716728   0.0000   0.0000   0.0000   0.0000
   2246    0.001460630355190    0.0  618.45    -136.999926392887    -136.999926392887    -136.929420145028    -136.927959514673   0.0000   0.0000   0.0000   0.0000
   2247    0.001491476114778    0.0  627.98    -137.001047464101    -137.001047464101    -136.929454433038    -136.927962956924   0.0000   0.0000   0.0000   0.0000
   2248    0.001520642315400    0.0  638.12    -137.002236225146    -137.002236225146    -136.929487122036    -136.927966479721   0.0000   0.0000   0.0000   0.0000
   2249    0.001542945276121    0.0  648.47    -137.003441712384    -137.003441712384    -136.929512830551    -136.927969885275   0.0000   0.0000   0.0000   0.0000
   2250    0.001562805599683    0.0  658.55    -137.004613945951    -137.004613945951    -136.929536004212    -136.927973198613   0.0000   0.0000   0.0000   0.0000

   writing restart file (with schema): ./h2o_54.save/
     restart      :      0.28s CPU      1.20s WALL (      15 calls)
   2251    0.001583859551651    0.0  667.92    -137.005706526128    -137.005706526128    -136.929559744066    -136.927975884515   0.0000   0.0000   0.0000   0.0000
   2252    0.001603214114483    0.0  676.29    -137.006681286682    -137.006681286682    -136.929581140912    -136.927977926798   0.0000   0.0000   0.0000   0.0000
   2253    0.001616438166974    0.0  683.43    -137.007509673140    -137.007509673140    -136.929595502414    -136.927979064247   0.0000   0.0000   0.0000   0.0000
   2254    0.001623649811569    0.0  689.20    -137.008175116127    -137.008175116127    -136.929603136576    -136.927979486764   0.0000   0.0000   0.0000   0.0000
   2255    0.001627311710289    0.0  693.53    -137.008672850392    -137.008672850392    -136.929606423214    -136.927979111504   0.0000   0.0000   0.0000   0.0000
   2256    0.001627690185587    0.0  696.49    -137.009009587483    -137.009009587483    -136.929605771078    -136.927978080892   0.0000   0.0000   0.0000   0.0000
   2257    0.001623942051352    0.0  698.22    -137.009201083619    -137.009201083619    -136.929600453080    -136.927976511029   0.0000   0.0000   0.0000   0.0000
   2258    0.001618060235051    0.0  698.89    -137.009270191860    -137.009270191860    -136.929592727476    -136.927974667241   0.0000   0.0000   0.0000   0.0000
   2259    0.001613362358431    0.0  698.72    -137.009244317770    -137.009244317770    -136.929586454035    -136.927973091677   0.0000   0.0000   0.0000   0.0000
   2260    0.001609664799131    0.0  697.95    -137.009150757786    -137.009150757786    -136.929581136528    -136.927971471729   0.0000   0.0000   0.0000   0.0000

   writing restart file (with schema): ./h2o_54.save/
     restart      :      0.30s CPU      1.29s WALL (      16 calls)
   2261    0.001604173956775    0.0  696.82    -137.009015408773    -137.009015408773    -136.929574289659    -136.927970115702   0.0000   0.0000   0.0000   0.0000
   2262    0.001595760720183    0.0  695.53    -137.008858782479    -137.008858782479    -136.929564853966    -136.927969093246   0.0000   0.0000   0.0000   0.0000
   2263    0.001586554698713    0.0  694.18    -137.008695007631    -137.008695007631    -136.929555264480    -136.927968709782   0.0000   0.0000   0.0000   0.0000
   2264    0.001578702312932    0.0  692.80    -137.008530908374    -137.008530908374    -136.929547729817    -136.927969027504   0.0000   0.0000   0.0000   0.0000
   2265    0.001572057340413    0.0  691.41    -137.008365847768    -137.008365847768    -136.929541608778    -136.927969551438   0.0000   0.0000   0.0000   0.0000
   2266    0.001565978446296    0.0  689.95    -137.008193926362    -137.008193926362    -136.929536277152    -136.927970298706   0.0000   0.0000   0.0000   0.0000
   2267    0.001560608252295    0.0  688.33    -137.008004610728    -137.008004610728    -136.929531585203    -136.927970976951   0.0000   0.0000   0.0000   0.0000
   2268    0.001556216462243    0.0  686.44    -137.007786289716    -137.007786289716    -136.929528001178    -136.927971784716   0.0000   0.0000   0.0000   0.0000
   2269    0.001552064868876    0.0  684.21    -137.007527494049    -137.007527494049    -136.929524509862    -136.927972444993   0.0000   0.0000   0.0000   0.0000
   2270    0.001547413426504    0.0  681.54    -137.007219519667    -137.007219519667    -136.929520151328    -136.927972737902   0.0000   0.0000   0.0000   0.0000

   writing restart file (with schema): ./h2o_54.save/
     restart      :      0.31s CPU      1.35s WALL (      17 calls)
   2271    0.001542000060463    0.0  678.42    -137.006858252899    -137.006858252899    -136.929514645989    -136.927972645929   0.0000   0.0000   0.0000   0.0000
   2272    0.001534747713779    0.0  674.86    -137.006444786164    -137.006444786164    -136.929506814655    -136.927972066941   0.0000   0.0000   0.0000   0.0000
   2273    0.001524090086150    0.0  670.94    -137.005986117417    -137.005986117417    -136.929495303889    -136.927971213803   0.0000   0.0000   0.0000   0.0000
   2274    0.001510435754182    0.0  666.75    -137.005493718124    -137.005493718124    -136.929480387846    -136.927969952092   0.0000   0.0000   0.0000   0.0000
   2275    0.001497086539519    0.0  662.40    -137.004983373166    -137.004983373166    -136.929465755931    -136.927968669391   0.0000   0.0000   0.0000   0.0000
   2276    0.001486643204459    0.0  658.03    -137.004472536964    -137.004472536964    -136.929453958721    -136.927967315516   0.0000   0.0000   0.0000   0.0000
   2277    0.001478459949175    0.0  653.79    -137.003979785274    -137.003979785274    -136.929444477926    -136.927966017977   0.0000   0.0000   0.0000   0.0000
   2278    0.001470535805614    0.0  649.86    -137.003523027229    -137.003523027229    -136.929435332699    -136.927964796893   0.0000   0.0000   0.0000   0.0000
   2279    0.001463143866910    0.0  646.39    -137.003118456014    -137.003118456014    -136.929426721363    -136.927963577496   0.0000   0.0000   0.0000   0.0000
   2280    0.001458469269422    0.0  643.47    -137.002780555434    -137.002780555434    -136.929421284699    -136.927962815429   0.0000   0.0000   0.0000   0.0000

   writing restart file (with schema): ./h2o_54.save/
     restart      :      0.33s CPU      1.39s WALL (      18 calls)
   2281    0.001456812053161    0.0  641.21    -137.002519873485    -137.002519873485    -136.929418944401    -136.927962132348   0.0000   0.0000   0.0000   0.0000
   2282    0.001456485227672    0.0  639.68    -137.002344783793    -137.002344783793    -136.929418159347    -136.927961674119   0.0000   0.0000   0.0000   0.0000
   2283    0.001456123123027    0.0  638.94    -137.002260346946    -137.002260346946    -136.929417394932    -136.927961271809   0.0000   0.0000   0.0000   0.0000
   2284    0.001456250363996    0.0  639.02    -137.002269302667    -137.002269302667    -136.929417160378    -136.927960910014   0.0000   0.0000   0.0000   0.0000
   2285    0.001458119354251    0.0  639.92    -137.002372983866    -137.002372983866    -136.929418958253    -136.927960838899   0.0000   0.0000   0.0000   0.0000
   2286    0.001462133807513    0.0  641.62    -137.002570404720    -137.002570404720    -136.929422944716    -136.927960810909   0.0000   0.0000   0.0000   0.0000
   2287    0.001468681423129    0.0  644.09    -137.002859223991    -137.002859223991    -136.929429577816    -136.927960896392   0.0000   0.0000   0.0000   0.0000
   2288    0.001478045988502    0.0  647.30    -137.003235046948    -137.003235046948    -136.929439068377    -136.927961022389   0.0000   0.0000   0.0000   0.0000
   2289    0.001488982642779    0.0  651.21    -137.003691739526    -137.003691739526    -136.929450387458    -136.927961404815   0.0000   0.0000   0.0000   0.0000
   2290    0.001499335595454    0.0  655.76    -137.004220768476    -137.004220768476    -136.929461184447    -136.927961848851   0.0000   0.0000   0.0000   0.0000

   writing restart file (with schema): ./h2o_54.save/
     restart      :      0.35s CPU      1.51s WALL (      19 calls)
   2291    0.001509361387902    0.0  660.85    -137.004812101265    -137.004812101265    -136.929471841307    -136.927962479919   0.0000   0.0000   0.0000   0.0000
   2292    0.001521787398861    0.0  666.35    -137.005452992701    -137.005452992701    -136.929485052883    -136.927963265484   0.0000   0.0000   0.0000   0.0000
   2293    0.001537893893704    0.0  672.13    -137.006128040862    -137.006128040862    -136.929501981371    -136.927964087477   0.0000   0.0000   0.0000   0.0000
   2294    0.001555017766980    0.0  678.04    -137.006820063204    -137.006820063204    -136.929520338854    -136.927965321087   0.0000   0.0000   0.0000   0.0000
   2295    0.001569764777507    0.0  683.93    -137.007508384683    -137.007508384683    -136.929536311236    -136.927966546459   0.0000   0.0000   0.0000   0.0000
   2296    0.001583634103877    0.0  689.61    -137.008170981403    -137.008170981403    -136.929551553338    -136.927967919234   0.0000   0.0000   0.0000   0.0000
   2297    0.001600586911424    0.0  694.83    -137.008783922528    -137.008783922528    -136.929569958472    -136.927969371560   0.0000   0.0000   0.0000   0.0000
   2298    0.001619941433080    0.0  699.37    -137.009322310455    -137.009322310455    -136.929590813005    -136.927970871572   0.0000   0.0000   0.0000   0.0000
   2299    0.001635680673468    0.0  703.06    -137.009761145057    -137.009761145057    -136.929608181242    -136.927972500568   0.0000   0.0000   0.0000   0.0000

 * Physical Quantities at step:  2300

   from rhoofr: total integrated electronic density
   in g-space =     64.000000   in r-space =    64.000000


                total energy =     -137.01007519794 Hartree a.u.
              kinetic energy =       97.21565 Hartree a.u.
        electrostatic energy =     -185.24319 Hartree a.u.
                         esr =        0.00812 Hartree a.u.
                       eself =      242.55691 Hartree a.u.
      pseudopotential energy =       -9.27281 Hartree a.u.
  n-l pseudopotential energy =       -6.13047 Hartree a.u.
 exchange-correlation energy =      -33.57926 Hartree a.u.
           average potential =        0.00000 Hartree a.u.



   Eigenvalues (eV), kp =   1 , spin =  1

  -24.33  -23.10  -22.67  -22.52  -22.50  -22.13  -21.45  -21.36  -11.87  -11.14
  -10.65  -10.60  -10.34  -10.30   -9.87   -8.58   -8.32   -7.77   -7.46   -7.26
   -6.80   -6.77   -6.50   -5.58   -5.53   -5.23   -4.99   -4.81   -4.65   -4.54
   -4.15   -3.88


   CELL_PARAMETERS
   13.00000000    0.00000000    0.00000000
    0.00000000   13.00000000    0.00000000
    0.00000000    0.00000000   13.00000000

   System Density [g/cm^3] :              0.7351364820


   System Volume [A.U.^3] :           2197.0000000000


   Center of mass square displacement (a.u.):   0.000000

   ATOMIC_POSITIONS
   O       0.77594436314177E+01     0.32667562812190E+01     0.41478587757205E+01
   H       0.63145092577885E+01     0.43789233439872E+01     0.33534591564898E+01
   H       0.75432642828027E+01     0.14911933302097E+01     0.36304797070485E+01
   O       0.47097848044076E+01    -0.64047198828836E+01     0.21943730209375E+01
   H       0.55049643119307E+01    -0.46361658706838E+01     0.21012376695276E+01
   H       0.28942774942196E+01    -0.62751076720605E+01     0.28593407171649E+01
   O      -0.51115864425603E+01    -0.21639821698121E+01     0.29661180123128E+01
   H      -0.34617413859407E+01    -0.29200567404818E+01     0.24231705288629E+01
   H      -0.52083699008363E+01    -0.22586694683768E+01     0.48206465120633E+01
   O      -0.10036628867871E+01     0.59501173022331E+01     0.20761385401527E+01
   H      -0.20537018627650E+01     0.47657066108352E+01     0.31383021822541E+01
   H      -0.15117065124515E+01     0.57049501694780E+01     0.43454627965585E+00
   O       0.11840646195100E+01    -0.49535163444299E+01    -0.27943424846481E+01
   H       0.21754273661998E+01    -0.39157155336323E+01    -0.15840650316615E+01
   H       0.16943159063709E+01    -0.44718776990800E+01    -0.46230194687471E+01
   O      -0.59722718261830E+01    -0.25122237130681E+01    -0.49260327013455E+01
   H      -0.45433569119856E+01    -0.15872478124404E+01    -0.41653757649988E+01
   H      -0.59468990253772E+01    -0.41135956393511E+01    -0.40576144948387E+01
   O      -0.58767001158335E+01     0.56801022163618E+01    -0.30465106084278E+01
   H      -0.71881797993118E+01     0.52079194219385E+01    -0.16598190465503E+01
   H      -0.63440041731660E+01     0.38396510317802E+01    -0.38809108857447E+01
   O       0.44370745766867E+01     0.13407927618472E+01    -0.30785260972279E+01
   H       0.51383759068807E+01    -0.42837956460896E+00    -0.39601127080536E+01
   H       0.29903031976948E+01     0.19907478902715E+01    -0.40974155069124E+01

   ATOMIC_VELOCITIES
   O       0.51704546104037E-04     0.20195026256042E-04     0.25829637155159E-03
   H       0.12012338180301E-03     0.49537183026770E-03    -0.73523022482013E-03
   H      -0.97668202458956E-04    -0.11710686894523E-02     0.11116066381786E-02
   O      -0.27832470837382E-03    -0.18785118592657E-03    -0.12549150168455E-03
   H       0.24528561875740E-02     0.71332011942993E-03    -0.85781990109848E-03
   H       0.23602829004736E-02    -0.12333028659350E-02    -0.17833618981280E-02
   O       0.31491904446442E-03    -0.94902002623437E-04     0.99487760651579E-05
   H      -0.49804719047284E-03     0.99820342178012E-03     0.23472569514779E-02
   H      -0.27786555716660E-03     0.15841596204788E-03    -0.18119051086019E-02
   O      -0.12750027694381E-03     0.87435299606864E-05     0.23230861507711E-05
   H      -0.88606395915327E-03    -0.91554659956286E-03    -0.20228303325883E-03
   H       0.66553836548267E-03    -0.51114574900296E-04    -0.15102771333735E-02
   O       0.17349701518963E-03     0.26830667695982E-03     0.29489061158695E-03
   H      -0.93845486827557E-03    -0.11271882175626E-02     0.20726244822240E-03
   H      -0.14092234195926E-02    -0.74498841269144E-03    -0.30145698186866E-02
   O       0.13184593427628E-03     0.20673062087715E-03    -0.58840698984058E-04
   H       0.22211176467255E-02     0.31398301111561E-03     0.88953517316439E-03
   H      -0.11161472301802E-02    -0.25067911744440E-02     0.75927699866745E-03
   O      -0.47488581035746E-03     0.19666899700903E-03     0.13668281873411E-03
   H      -0.88714099349462E-03     0.57774619338563E-03    -0.12837818628598E-02
   H       0.65980038277967E-03    -0.33235160677635E-03    -0.53973552288075E-03
   O       0.13487001172806E-03    -0.26353031819983E-04    -0.81954575231971E-04
   H      -0.45359327496949E-03    -0.80865146648924E-03    -0.18027705695605E-02
   H      -0.74279078123950E-03    -0.58155244869406E-03     0.13077788945002E-02



   Partial temperatures (for each ionic specie) 
   Species  Temp (K)   Mean Square Displacement (a.u.)
        1   3.39E+02     7.0288E+00
        2   8.89E+02     1.1650E+01

  nfi     ekinc              temph  tempp     etot                 enthal               econs                econt              vnhh    xnhh0   vnhp    xnhp0
   2300    0.001644180616893    0.0  705.73    -137.010075197935    -137.010075197935    -136.929618095391    -136.927973914774   0.0000   0.0000   0.0000   0.0000

   writing restart file (with schema): ./h2o_54.save/
     restart      :      0.37s CPU      1.57s WALL (      20 calls)
   2301    0.001649502204113    0.0  707.13    -137.010240913945    -137.010240913945    -136.929624773403    -136.927975271199   0.0000   0.0000   0.0000   0.0000
   2302    0.001656933117914    0.0  707.01    -137.010236285719    -137.010236285719    -136.929633338748    -136.927976405630   0.0000   0.0000   0.0000   0.0000
   2303    0.001664498868522    0.0  705.24    -137.010042760887    -137.010042760887    -136.929641917847    -136.927977418978   0.0000   0.0000   0.0000   0.0000
   2304    0.001664955865144    0.0  701.74    -137.009645654204    -137.009645654204    -136.929643114030    -136.927978158165   0.0000   0.0000   0.0000   0.0000
   2305    0.001655896091029    0.0  696.47    -137.009035255898    -137.009035255898    -136.929634342878    -136.927978446787   0.0000   0.0000   0.0000   0.0000
   2306    0.001642862856232    0.0  689.33    -137.008207991018    -137.008207991018    -136.929621191822    -136.927978328965   0.0000   0.0000   0.0000   0.0000
   2307    0.001630765446492    0.0  680.31    -137.007166911594    -137.007166911594    -136.929608406830    -136.927977641384   0.0000   0.0000   0.0000   0.0000
   2308    0.001616853656806    0.0  669.53    -137.005923472810    -137.005923472810    -136.929593389382    -136.927976535725   0.0000   0.0000   0.0000   0.0000
   2309    0.001595138408771    0.0  657.23    -137.004497475813    -137.004497475813    -136.929569916069    -136.927974777660   0.0000   0.0000   0.0000   0.0000
   2310    0.001565511671330    0.0  643.66    -137.002918430287    -137.002918430287    -136.929537942832    -136.927972431160   0.0000   0.0000   0.0000   0.0000

   writing restart file (with schema): ./h2o_54.save/
     restart      :      0.39s CPU      1.64s WALL (      21 calls)
   2311    0.001533506099267    0.0  629.11    -137.001225150841    -137.001225150841    -136.929502972683    -136.927969466583   0.0000   0.0000   0.0000   0.0000
   2312    0.001502184168264    0.0  613.99    -136.999465614564    -136.999465614564    -136.929468093139    -136.927965908971   0.0000   0.0000   0.0000   0.0000
   2313    0.001469097180967    0.0  598.79    -136.997696473067    -136.997696473067    -136.929430962730    -136.927961865549   0.0000   0.0000   0.0000   0.0000
   2314    0.001432361921177    0.0  584.11    -136.995981829453    -136.995981829453    -136.929389777722    -136.927957415801   0.0000   0.0000   0.0000   0.0000
   2315    0.001395452188564    0.0  570.53    -136.994391413241    -136.994391413241    -136.929348392519    -136.927952940330   0.0000   0.0000   0.0000   0.0000
   2316    0.001363288102523    0.0  558.62    -136.992996807669    -136.992996807669    -136.929311635589    -136.927948347486   0.0000   0.0000   0.0000   0.0000
   2317    0.001336926436006    0.0  549.00    -136.991869588155    -136.991869588155    -136.929281022098    -136.927944095662   0.0000   0.0000   0.0000   0.0000
   2318    0.001314641070433    0.0  542.27    -136.991076323008    -136.991076323008    -136.929254988919    -136.927940347848   0.0000   0.0000   0.0000   0.0000
   2319    0.001297991959066    0.0  538.92    -136.990675201555    -136.990675201555    -136.929235300138    -136.927937308179   0.0000   0.0000   0.0000   0.0000
   2320    0.001292220303763    0.0  539.32    -136.990712652808    -136.990712652808    -136.929227670340    -136.927935450036   0.0000   0.0000   0.0000   0.0000

   writing restart file (with schema): ./h2o_54.save/
     restart      :      0.40s CPU      1.70s WALL (      22 calls)
   2321    0.001299521084432    0.0  543.70    -136.991218590108    -136.991218590108    -136.929234209418    -136.927934688334   0.0000   0.0000   0.0000   0.0000
   2322    0.001316472695499    0.0  552.19    -136.992204850535    -136.992204850535    -136.929251760482    -136.927935287787   0.0000   0.0000   0.0000   0.0000
   2323    0.001339179403635    0.0  564.77    -136.993662658290    -136.993662658290    -136.929276419589    -136.927937240185   0.0000   0.0000   0.0000   0.0000
   2324    0.001368907301639    0.0  581.14    -136.995562405427    -136.995562405427    -136.929309434226    -136.927940526924   0.0000   0.0000   0.0000   0.0000
   2325    0.001409740230167    0.0  600.85    -136.997854444466    -136.997854444466    -136.929354766232    -136.927945026002   0.0000   0.0000   0.0000   0.0000
   2326    0.001461503520817    0.0  623.29    -137.000470725345    -137.000470725345    -136.929412019129    -136.927950515608   0.0000   0.0000   0.0000   0.0000
   2327    0.001518409011931    0.0  647.80    -137.003327569715    -137.003327569715    -136.929475138463    -136.927956729451   0.0000   0.0000   0.0000   0.0000
   2328    0.001575030390055    0.0  673.58    -137.006329622120    -137.006329622120    -136.929538509716    -136.927963479325   0.0000   0.0000   0.0000   0.0000
   2329    0.001630571971212    0.0  699.73    -137.009373808793    -137.009373808793    -136.929601192442    -136.927970620471   0.0000   0.0000   0.0000   0.0000
   2330    0.001686458016117    0.0  725.31    -137.012353110046    -137.012353110046    -136.929664023442    -136.927977565426   0.0000   0.0000   0.0000   0.0000

   writing restart file (with schema): ./h2o_54.save/
     restart      :      0.43s CPU      1.79s WALL (      23 calls)
   2331    0.001741903035755    0.0  749.40    -137.015162060093    -137.015162060093    -136.929726159824    -136.927984256788   0.0000   0.0000   0.0000   0.0000
   2332    0.001792675852045    0.0  771.16    -137.017699182033    -137.017699182033    -136.929783071913    -136.927990396061   0.0000   0.0000   0.0000   0.0000
   2333    0.001834673536142    0.0  789.79    -137.019871065454    -137.019871065454    -136.929830429105    -136.927995755569   0.0000   0.0000   0.0000   0.0000
   2334    0.001866545731533    0.0  804.61    -137.021596238446    -137.021596238446    -136.929866901680    -136.928000355949   0.0000   0.0000   0.0000   0.0000
   2335    0.001888217161797    0.0  815.01    -137.022806999444    -137.022806999444    -136.929892058640    -136.928003841479   0.0000   0.0000   0.0000   0.0000
   2336    0.001899339714698    0.0  820.55    -137.023452573640    -137.023452573640    -136.929905470905    -136.928006131191   0.0000   0.0000   0.0000   0.0000
   2337    0.001899448671392    0.0  820.96    -137.023500794446    -137.023500794446    -136.929906531488    -136.928007082816   0.0000   0.0000   0.0000   0.0000
   2338    0.001888668396076    0.0  816.14    -137.022939967020    -137.022939967020    -136.929895410199    -136.928006741803   0.0000   0.0000   0.0000   0.0000
   2339    0.001867077419910    0.0  806.17    -137.021779587254    -137.021779587254    -136.929872041439    -136.928004964019   0.0000   0.0000   0.0000   0.0000
   2340    0.001833919480254    0.0  791.33    -137.020051442831    -137.020051442831    -136.929835638730    -136.928001719250   0.0000   0.0000   0.0000   0.0000

   writing restart file (with schema): ./h2o_54.save/
     restart      :      0.44s CPU      1.86s WALL (      24 calls)
   2341    0.001788294799808    0.0  772.11    -137.017809519376    -137.017809519376    -136.929785446144    -136.927997151344   0.0000   0.0000   0.0000   0.0000
   2342    0.001731293610246    0.0  749.14    -137.015128616534    -137.015128616534    -136.929722554467    -136.927991260856   0.0000   0.0000   0.0000   0.0000
   2343    0.001666980251310    0.0  723.23    -137.012103067430    -137.012103067430    -136.929651375365    -136.927984395113   0.0000   0.0000   0.0000   0.0000
   2344    0.001599835873572    0.0  695.29    -137.008842800582    -137.008842800582    -136.929576508373    -136.927976672499   0.0000   0.0000   0.0000   0.0000
   2345    0.001532149663267    0.0  666.37    -137.005469795327    -137.005469795327    -136.929500601191    -136.927968451528   0.0000   0.0000   0.0000   0.0000
   2346    0.001464586262489    0.0  637.59    -137.002112834615    -137.002112834615    -136.929424761900    -136.927960175637   0.0000   0.0000   0.0000   0.0000
   2347    0.001399348360044    0.0  610.06    -136.998901294465    -136.998901294465    -136.929351584603    -136.927952236243   0.0000   0.0000   0.0000   0.0000
   2348    0.001341545604355    0.0  584.82    -136.995958894110    -136.995958894110    -136.929286634780    -136.927945089175   0.0000   0.0000   0.0000   0.0000
   2349    0.001295977864229    0.0  562.80    -136.993397080868    -136.993397080868    -136.929235071510    -136.927939093646   0.0000   0.0000   0.0000   0.0000
   2350    0.001263324385211    0.0  544.81    -136.991309236783    -136.991309236783    -136.929197963523    -136.927934639138   0.0000   0.0000   0.0000   0.0000

   writing restart file (with schema): ./h2o_54.save/
     restart      :      0.46s CPU      1.94s WALL (      25 calls)
   2351    0.001241163835331    0.0  531.49    -136.989765556372    -136.989765556372    -136.929172980233    -136.927931816398   0.0000   0.0000   0.0000   0.0000
   2352    0.001228888446038    0.0  523.23    -136.988810320677    -136.988810320677    -136.929159679176    -136.927930790730   0.0000   0.0000   0.0000   0.0000
   2353    0.001229409673801    0.0  520.14    -136.988459818026    -136.988459818026    -136.929160948926    -136.927931539252   0.0000   0.0000   0.0000   0.0000
   2354    0.001245490910746    0.0  522.11    -136.988702543321    -136.988702543321    -136.929179406287    -136.927933915376   0.0000   0.0000   0.0000   0.0000
   2355    0.001275951696084    0.0  528.82    -136.989501530748    -136.989501530748    -136.929213646669    -136.927937694973   0.0000   0.0000   0.0000   0.0000
   2356    0.001316723504802    0.0  539.79    -136.990798007541    -136.990798007541    -136.929259286863    -136.927942563358   0.0000   0.0000   0.0000   0.0000
   2357    0.001364871663539    0.0  554.39    -136.992516012146    -136.992516012146    -136.929313021411    -136.927948149748   0.0000   0.0000   0.0000   0.0000
   2358    0.001420028579711    0.0  571.85    -136.994567859974    -136.994567859974    -136.929374001406    -136.927953972826   0.0000   0.0000   0.0000   0.0000
   2359    0.001481633860238    0.0  591.37    -136.996860340567    -136.996860340567    -136.929441568955    -136.927959935095   0.0000   0.0000   0.0000   0.0000
   2360    0.001546049957721    0.0  612.14    -136.999298698855    -136.999298698855    -136.929511720682    -136.927965670725   0.0000   0.0000   0.0000   0.0000

   writing restart file (with schema): ./h2o_54.save/
     restart      :      0.48s CPU      2.09s WALL (      26 calls)
   2361    0.001608511237714    0.0  633.41    -137.001791615468    -137.001791615468    -136.929579281576    -136.927970770339   0.0000   0.0000   0.0000   0.0000
   2362    0.001666598187091    0.0  654.48    -137.004255781845    -137.004255781845    -136.929641737644    -136.927975139456   0.0000   0.0000   0.0000   0.0000
   2363    0.001719955858539    0.0  674.70    -137.006618009555    -137.006618009555    -136.929698627313    -136.927978671454   0.0000   0.0000   0.0000   0.0000
   2364    0.001768123917416    0.0  693.54    -137.008816923661    -137.008816923661    -136.929749563323    -136.927981439406   0.0000   0.0000   0.0000   0.0000
   2365    0.001810407659305    0.0  710.58    -137.010803347588    -137.010803347588    -136.929793847168    -136.927983439509   0.0000   0.0000   0.0000   0.0000
   2366    0.001847614599497    0.0  725.47    -137.012540236961    -137.012540236961    -136.929832325053    -136.927984710453   0.0000   0.0000   0.0000   0.0000
   2367    0.001881632403230    0.0  737.99    -137.014001827607    -137.014001827607    -136.929866921311    -136.927985288908   0.0000   0.0000   0.0000   0.0000
   2368    0.001912163077102    0.0  747.99    -137.015172594137    -137.015172594137    -136.929897512907    -136.927985349829   0.0000   0.0000   0.0000   0.0000
   2369    0.001935528899843    0.0  755.45    -137.016045586739    -137.016045586739    -136.929920542538    -136.927985013638   0.0000   0.0000   0.0000   0.0000
   2370    0.001948763004120    0.0  760.39    -137.016621015315    -137.016621015315    -136.929933130101    -136.927984367097   0.0000   0.0000   0.0000   0.0000

   writing restart file (with schema): ./h2o_54.save/
     restart      :      0.49s CPU      2.15s WALL (      27 calls)
   2371    0.001953618357327    0.0  762.84    -137.016904658803    -137.016904658803    -136.929937186349    -136.927983567992   0.0000   0.0000   0.0000   0.0000
   2372    0.001954349153895    0.0  762.85    -137.016905994483    -137.016905994483    -136.929936818703    -136.927982469549   0.0000   0.0000   0.0000   0.0000
   2373    0.001952268274844    0.0  760.53    -137.016638431194    -137.016638431194    -136.929933479415    -136.927981211140   0.0000   0.0000   0.0000   0.0000
   2374    0.001944148372645    0.0  756.05    -137.016118268819    -137.016118268819    -136.929924106246    -136.927979957874   0.0000   0.0000   0.0000   0.0000
   2375    0.001927272341593    0.0  749.59    -137.015363516105    -137.015363516105    -136.929905847969    -136.927978575627   0.0000   0.0000   0.0000   0.0000
   2376    0.001904416640939    0.0  741.31    -137.014394502964    -137.014394502964    -136.929881471098    -136.927977054457   0.0000   0.0000   0.0000   0.0000
   2377    0.001880916535153    0.0  731.35    -137.013233885595    -137.013233885595    -136.929856379518    -136.927975462983   0.0000   0.0000   0.0000   0.0000
   2378    0.001858101035548    0.0  719.92    -137.011906230179    -137.011906230179    -136.929831893487    -136.927973792451   0.0000   0.0000   0.0000   0.0000
   2379    0.001832722203373    0.0  707.28    -137.010438120134    -137.010438120134    -136.929804735350    -136.927972013147   0.0000   0.0000   0.0000   0.0000
   2380    0.001802231594593    0.0  693.70    -137.008858098825    -137.008858098825    -136.929772450742    -136.927970219147   0.0000   0.0000   0.0000   0.0000

   writing restart file (with schema): ./h2o_54.save/
     restart      :      0.51s CPU      2.28s WALL (      28 calls)
   2381    0.001767829531149    0.0  679.44    -137.007195790892    -137.007195790892    -136.929736126932    -136.927968297401   0.0000   0.0000   0.0000   0.0000
   2382    0.001732096676343    0.0  664.74    -137.005482167486    -137.005482167486    -136.929698407939    -136.927966311262   0.0000   0.0000   0.0000   0.0000
   2383    0.001695471504400    0.0  649.87    -137.003748883549    -137.003748883549    -136.929659879178    -136.927964407674   0.0000   0.0000   0.0000   0.0000
   2384    0.001656954250477    0.0  635.13    -137.002027125913    -137.002027125913    -136.929619539533    -136.927962585283   0.0000   0.0000   0.0000   0.0000
   2385    0.001617196547274    0.0  620.75    -137.000347262169    -137.000347262169    -136.929578123255    -136.927960926708   0.0000   0.0000   0.0000   0.0000
   2386    0.001578414122953    0.0  606.99    -136.998738066932    -136.998738066932    -136.929537760956    -136.927959346833   0.0000   0.0000   0.0000   0.0000
   2387    0.001541786323009    0.0  594.07    -136.997226657050    -136.997226657050    -136.929499703186    -136.927957916863   0.0000   0.0000   0.0000   0.0000
   2388    0.001506887478459    0.0  582.21    -136.995837914842    -136.995837914842    -136.929463464168    -136.927956576690   0.0000   0.0000   0.0000   0.0000
   2389    0.001474099350486    0.0  571.60    -136.994595059978    -136.994595059978    -136.929429467836    -136.927955368486   0.0000   0.0000   0.0000   0.0000
   2390    0.001445104170164    0.0  562.43    -136.993519825003    -136.993519825003    -136.929399452600    -136.927954348430   0.0000   0.0000   0.0000   0.0000

   writing restart file (with schema): ./h2o_54.save/
     restart      :      0.53s CPU      2.37s WALL (      29 calls)
   2391    0.001420082155993    0.0  554.88    -136.992632259720    -136.992632259720    -136.929373389965    -136.927953307809   0.0000   0.0000   0.0000   0.0000
   2392    0.001396688942011    0.0  549.12    -136.991951705361    -136.991951705361    -136.929348871915    -136.927952182973   0.0000   0.0000   0.0000   0.0000
   2393    0.001373123017045    0.0  545.35    -136.991497044280    -136.991497044280    -136.929324191792    -136.927951068775   0.0000   0.0000   0.0000   0.0000
   2394    0.001351370936555    0.0  543.70    -136.991286230425    -136.991286230425    -136.929301478423    -136.927950107487   0.0000   0.0000   0.0000   0.0000
   2395    0.001335907797139    0.0  544.28    -136.991335629047    -136.991335629047    -136.929285164648    -136.927949256851   0.0000   0.0000   0.0000   0.0000
   2396    0.001329012817582    0.0  547.19    -136.991659731539    -136.991659731539    -136.929277599127    -136.927948586309   0.0000   0.0000   0.0000   0.0000
   2397    0.001328510722610    0.0  552.54    -136.992269570770    -136.992269570770    -136.929276698959    -136.927948188236   0.0000   0.0000   0.0000   0.0000
   2398    0.001331268481703    0.0  560.43    -136.993170891868    -136.993170891868    -136.929279483846    -136.927948215364   0.0000   0.0000   0.0000   0.0000
   2399    0.001337823550110    0.0  570.81    -136.994362409527    -136.994362409527    -136.929286692525    -136.927948868975   0.0000   0.0000   0.0000   0.0000

 * Physical Quantities at step:  2400

   from rhoofr: total integrated electronic density
   in g-space =     64.000000   in r-space =    64.000000


                total energy =     -136.99583396649 Hartree a.u.
              kinetic energy =       97.79807 Hartree a.u.
        electrostatic energy =     -185.41166 Hartree a.u.
                         esr =        0.01315 Hartree a.u.
                       eself =      242.55691 Hartree a.u.
      pseudopotential energy =       -9.39823 Hartree a.u.
  n-l pseudopotential energy =       -6.27241 Hartree a.u.
 exchange-correlation energy =      -33.71161 Hartree a.u.
           average potential =        0.00000 Hartree a.u.



   Eigenvalues (eV), kp =   1 , spin =  1

  -24.21  -23.49  -23.23  -23.10  -22.37  -22.02  -21.93  -21.60  -11.65  -11.17
  -11.08  -10.94  -10.45  -10.29   -9.74   -9.52   -8.24   -7.79   -7.67   -7.58
   -6.72   -6.51   -6.06   -5.65   -5.58   -5.49   -5.29   -5.11   -4.48   -4.38
   -4.22   -4.15


   CELL_PARAMETERS
   13.00000000    0.00000000    0.00000000
    0.00000000   13.00000000    0.00000000
    0.00000000    0.00000000   13.00000000

   System Density [g/cm^3] :              0.7351364820


   System Volume [A.U.^3] :           2197.0000000000


   Center of mass square displacement (a.u.):   0.000000

   ATOMIC_POSITIONS
   O       0.78083078747262E+01     0.32593047686537E+01     0.43018154289272E+01
   H       0.65437888972576E+01     0.42461221277684E+01     0.31462355366559E+01
   H       0.74901534497340E+01     0.14591114244158E+01     0.37915595572407E+01
   O       0.46704337663821E+01    -0.64909104800564E+01     0.20533706894030E+01
   H       0.57314624668236E+01    -0.47686444682962E+01     0.24256790816557E+01
   H       0.30200804114625E+01    -0.62204180640647E+01     0.22068101876003E+01
   O      -0.49749507323630E+01    -0.22138565498263E+01     0.29576580281262E+01
   H      -0.33531156566758E+01    -0.27955282179090E+01     0.30900567296547E+01
   H      -0.55425473494640E+01    -0.24164690862550E+01     0.46177094129349E+01
   O      -0.10733159486097E+01     0.59346518600548E+01     0.20847621211024E+01
   H      -0.25234409252771E+01     0.47729154078919E+01     0.26083086767214E+01
   H      -0.98339019264005E+00     0.58447438462724E+01     0.12525985598255E+00
   O       0.11904053077157E+01    -0.48889126335341E+01    -0.27045173270448E+01
   H       0.24510757722499E+01    -0.37400318880641E+01    -0.20818885265447E+01
   H       0.13962540395633E+01    -0.44528584895978E+01    -0.46300303612109E+01
   O      -0.58675298197880E+01    -0.24936653349250E+01    -0.48960177026779E+01
   H      -0.41986303983957E+01    -0.21182397455609E+01    -0.39755271908246E+01
   H      -0.60801814299376E+01    -0.42739362486026E+01    -0.46187763270613E+01
   O      -0.61203074474146E+01     0.57780658189190E+01    -0.29825983683675E+01
   H      -0.75096026534484E+01     0.57669561453572E+01    -0.19073619327654E+01
   H      -0.59578913531108E+01     0.44390049667547E+01    -0.43014322402850E+01
   O       0.44837100309990E+01     0.12872028662742E+01    -0.31476305740996E+01
   H       0.49134685496705E+01    -0.20639166331009E+00    -0.44380801039229E+01
   H       0.27491097779055E+01     0.17351342886593E+01    -0.33539028965339E+01

   ATOMIC_VELOCITIES
   O       0.11879340556600E-03    -0.36101261479587E-04     0.28714820610282E-03
   H       0.36334084581481E-03    -0.84470096864928E-03     0.67893010525657E-03
   H       0.38710033414249E-03     0.83431610792335E-03    -0.20607216437856E-03
   O      -0.14361027836785E-04    -0.21711041259007E-03    -0.35859786057027E-03
   H      -0.14295891370456E-02    -0.19247479630871E-03     0.91466542436825E-03
   H       0.39771440034630E-03     0.14332437679903E-02    -0.11795746902134E-02
   O       0.23280477633800E-03    -0.14941376944996E-03     0.13430789510730E-03
   H       0.50767039869793E-03    -0.26841056815158E-03     0.15755994219918E-03
   H      -0.64466201653901E-03    -0.65272804221250E-05    -0.14666873252112E-02
   O      -0.15445753677912E-03    -0.56482338623015E-04     0.46221386241177E-04
   H      -0.40785940161433E-03     0.59503015161195E-03    -0.80584850643783E-03
   H       0.11675831729946E-02     0.71491580942376E-03    -0.94123355450689E-03
   O      -0.98378651703254E-04     0.66762042261026E-04     0.10299230140690E-03
   H       0.12685880475703E-02     0.11741798057646E-02    -0.24181235972425E-02
   H       0.23496603008749E-03     0.32415149884200E-03     0.26423036846346E-02
   O       0.30657407886677E-03     0.89538221049496E-04     0.26488749299808E-04
   H      -0.61416478344876E-03    -0.13982473785411E-02     0.49559246253167E-04
   H       0.68685269231761E-05    -0.28481969185433E-02    -0.77007029214750E-03
   O      -0.36849414175075E-03     0.34086718618148E-03     0.45254742202488E-04
   H       0.12855129374970E-03    -0.67440977995331E-03    -0.13724972226609E-02
   H      -0.14864303911241E-02     0.23830608819533E-02     0.13223623357679E-02
   O      -0.24607391440490E-04    -0.16689486945817E-03    -0.20722156019577E-03
   H       0.23283093723292E-05     0.11235802932195E-02     0.54398914284881E-03
   H       0.15175150851134E-03    -0.30430452064750E-03     0.16348412977316E-02



   Partial temperatures (for each ionic specie) 
   Species  Temp (K)   Mean Square Displacement (a.u.)
        1   3.26E+02     7.2627E+00
        2   7.12E+02     1.2378E+01

  nfi     ekinc              temph  tempp     etot                 enthal               econs                econt              vnhh    xnhh0   vnhp    xnhp0
[...]
  12072    0.001313945319041    0.0  521.78    -136.988749852415    -136.988749852415    -136.929264127334    -136.927950182015   0.0000   0.0000   0.0000   0.0000
  12073    0.001341060545506    0.0  526.02    -136.989263675916    -136.989263675916    -136.929294340332    -136.927953279787   0.0000   0.0000   0.0000   0.0000
  12074    0.001370095443565    0.0  531.64    -136.989936694759    -136.989936694759    -136.929326595907    -136.927956500464   0.0000   0.0000   0.0000   0.0000
  12075    0.001399978779522    0.0  538.20    -136.990717703405    -136.990717703405    -136.929359673835    -136.927959695056   0.0000   0.0000   0.0000   0.0000
  12076    0.001429922396106    0.0  545.26    -136.991555657934    -136.991555657934    -136.929392628754    -136.927962706358   0.0000   0.0000   0.0000   0.0000
  12077    0.001458871948172    0.0  552.41    -136.992402138750    -136.992402138750    -136.929424281038    -136.927965409090   0.0000   0.0000   0.0000   0.0000
  12078    0.001485439006641    0.0  559.27    -136.993213334835    -136.993213334835    -136.929453139286    -136.927967700279   0.0000   0.0000   0.0000   0.0000
  12079    0.001508517832546    0.0  565.53    -136.993951549100    -136.993951549100    -136.929478012409    -136.927969494576   0.0000   0.0000   0.0000   0.0000
  12080    0.001527847355927    0.0  570.92    -136.994586405491    -136.994586405491    -136.929498551093    -136.927970703737   0.0000   0.0000   0.0000   0.0000

   writing restart file (with schema): ./h2o_54.save/
     restart      :     18.27s CPU     81.82s WALL (     998 calls)
  12081    0.001543705163125    0.0  575.24    -136.995095873434    -136.995095873434    -136.929515058782    -136.927971353619   0.0000   0.0000   0.0000   0.0000
  12082    0.001555946503048    0.0  578.38    -136.995466362787    -136.995466362787    -136.929527458455    -136.927971511952   0.0000   0.0000   0.0000   0.0000
  12083    0.001563853267855    0.0  580.30    -136.995692297684    -136.995692297684    -136.929535019269    -136.927971166002   0.0000   0.0000   0.0000   0.0000
  12084    0.001567006097893    0.0  581.01    -136.995775713917    -136.995775713917    -136.929537420983    -136.927970414885   0.0000   0.0000   0.0000   0.0000
  12085    0.001565812936754    0.0  580.59    -136.995725037742    -136.995725037742    -136.929535134952    -136.927969322015   0.0000   0.0000   0.0000   0.0000
  12086    0.001561220658452    0.0  579.14    -136.995553909265    -136.995553909265    -136.929529212227    -136.927967991569   0.0000   0.0000   0.0000   0.0000
  12087    0.001554072483771    0.0  576.81    -136.995279702673    -136.995279702673    -136.929520642830    -136.927966570346   0.0000   0.0000   0.0000   0.0000
  12088    0.001544847316253    0.0  573.76    -136.994921648558    -136.994921648558    -136.929510007017    -136.927965159701   0.0000   0.0000   0.0000   0.0000
  12089    0.001533945076258    0.0  570.16    -136.994499092488    -136.994499092488    -136.929497847289    -136.927963902213   0.0000   0.0000   0.0000   0.0000
  12090    0.001521780872100    0.0  566.16    -136.994029601268    -136.994029601268    -136.929484668798    -136.927962887926   0.0000   0.0000   0.0000   0.0000

   writing restart file (with schema): ./h2o_54.save/
     restart      :     18.29s CPU     81.90s WALL (     999 calls)
  12091    0.001508674453258    0.0  561.88    -136.993527574191    -136.993527574191    -136.929470814258    -136.927962139805   0.0000   0.0000   0.0000   0.0000
  12092    0.001494889317303    0.0  557.40    -136.993003474564    -136.993003474564    -136.929456629603    -136.927961740286   0.0000   0.0000   0.0000   0.0000
  12093    0.001480702863015    0.0  552.79    -136.992462923942    -136.992462923942    -136.929442436350    -136.927961733487   0.0000   0.0000   0.0000   0.0000
  12094    0.001466518831721    0.0  548.02    -136.991906286683    -136.991906286683    -136.929428581701    -136.927962062870   0.0000   0.0000   0.0000   0.0000
  12095    0.001452754335897    0.0  543.08    -136.991329190437    -136.991329190437    -136.929415425676    -136.927962671340   0.0000   0.0000   0.0000   0.0000
  12096    0.001439263326074    0.0  537.88    -136.990723405213    -136.990723405213    -136.929402726377    -136.927963463051   0.0000   0.0000   0.0000   0.0000
  12097    0.001425020567517    0.0  532.33    -136.990078224377    -136.990078224377    -136.929389357414    -136.927964336847   0.0000   0.0000   0.0000   0.0000
  12098    0.001408567037903    0.0  526.36    -136.989382087867    -136.989382087867    -136.929373758953    -136.927965191915   0.0000   0.0000   0.0000   0.0000
  12099    0.001388934379140    0.0  519.89    -136.988624383007    -136.988624383007    -136.929354768878    -136.927965834498   0.0000   0.0000   0.0000   0.0000

 * Physical Quantities at step: 12100

   from rhoofr: total integrated electronic density
   in g-space =     64.000000   in r-space =    64.000000


                total energy =     -136.98779781240 Hartree a.u.
              kinetic energy =       97.59511 Hartree a.u.
        electrostatic energy =     -185.31622 Hartree a.u.
                         esr =        0.01126 Hartree a.u.
                       eself =      242.55691 Hartree a.u.
      pseudopotential energy =       -9.39064 Hartree a.u.
  n-l pseudopotential energy =       -6.21814 Hartree a.u.
 exchange-correlation energy =      -33.65791 Hartree a.u.
           average potential =        0.00000 Hartree a.u.



   Eigenvalues (eV), kp =   1 , spin =  1

  -23.76  -23.67  -23.56  -22.93  -22.82  -22.28  -21.81  -21.74  -11.53  -11.38
  -10.91  -10.52  -10.44  -10.36   -9.79   -9.53   -8.12   -8.01   -7.91   -7.53
   -6.77   -6.51   -6.30   -5.96   -5.63   -5.34   -5.21   -4.82   -4.70   -4.52
   -4.23   -4.10


   CELL_PARAMETERS
   13.00000000    0.00000000    0.00000000
    0.00000000   13.00000000    0.00000000
    0.00000000    0.00000000   13.00000000

   System Density [g/cm^3] :              0.7351364820


   System Volume [A.U.^3] :           2197.0000000000


   Center of mass square displacement (a.u.):   0.000000

   ATOMIC_POSITIONS
   O       0.90572750734967E+01     0.19242077425178E+01     0.44406447118466E+01
   H       0.10881437606875E+02     0.16044442908980E+01     0.47838222965183E+01
   H       0.82218360094266E+01     0.29351568350130E+00     0.40924173570672E+01
   O       0.86283506511529E+00    -0.48373826604170E+01     0.44028380487766E+01
   H       0.70159629328746E+00    -0.32945146528585E+01     0.36099105761370E+01
   H       0.30457844664079E+00    -0.57678572657539E+01     0.28468821887031E+01
   O      -0.68679711650180E+01    -0.19519142781051E+01     0.21374401008966E+01
   H      -0.54013839159932E+01    -0.26820363205962E+01     0.13392074381461E+01
   H      -0.76335499449818E+01    -0.33534910723756E+01     0.29455166504882E+01
   O       0.14732069310339E+01     0.61697356968849E+01    -0.17715378284965E+01
   H      -0.79552450189719E-01     0.51667565963825E+01    -0.11595902885147E+01
   H       0.24059329607417E+01     0.55318333151431E+01    -0.31557777959764E+01
   O      -0.27999758654170E+01    -0.25520155049535E+01    -0.60030542214175E+00
   H      -0.33516950990260E+01    -0.10541991451222E+01    -0.14804982080963E+01
   H      -0.10432301527407E+01    -0.28900998100382E+01    -0.13504143420742E+01
   O      -0.41530445694876E+01    -0.44221118549596E+01    -0.64440999493521E+01
   H      -0.37836841996623E+01    -0.40804848201855E+01    -0.46153231258366E+01
   H      -0.25741077047035E+01    -0.55538344297695E+01    -0.70228507455264E+01
   O      -0.72689928966168E+01     0.21880998378036E+01    -0.43340780182224E+01
   H      -0.58220211128457E+01     0.22609853047210E+01    -0.57837736713847E+01
   H      -0.84127703075871E+01     0.78689651965456E+00    -0.43031182756827E+01
   O       0.96230745239951E+01     0.38171532128460E+01    -0.80747014997846E-01
   H       0.87002385201996E+01     0.31590024580280E+01     0.13649625038529E+01
   H       0.80546322649233E+01     0.45428372269233E+01    -0.72930228697850E+00

   ATOMIC_VELOCITIES
   O       0.14024276088516E-03    -0.22505306762487E-03     0.36645721497747E-04
   H       0.82591571140926E-03     0.76918722800023E-03     0.68734416631280E-03
   H       0.80095529764157E-04    -0.25067245443152E-03    -0.13826915713312E-02
   O      -0.54959757470847E-04     0.14978238211642E-03    -0.72070021279619E-04
   H      -0.80396717493542E-04     0.14587315943368E-02    -0.10239059533785E-02
   H      -0.47818791915188E-03     0.14830388331984E-03    -0.43801387208649E-03
   O       0.73706404048501E-04     0.28593042799067E-03    -0.21677719605540E-05
   H       0.18158897235215E-03     0.78915930443276E-03    -0.17557528518350E-02
   H      -0.42807199967460E-03    -0.61445240513242E-03     0.56186970385857E-03
   O       0.18926798051506E-03     0.10622297401979E-03    -0.19921050927656E-03
   H      -0.73846144936045E-03    -0.13022141424514E-02     0.94163252813006E-03
   H      -0.92773092888563E-03     0.51266388925356E-03     0.23251873421740E-02
   O      -0.74300759862272E-04     0.13852921777441E-03     0.50011135027174E-03
   H       0.76604272360814E-03    -0.88811894868287E-03     0.81309999763242E-03
   H       0.25719900433095E-03     0.12059571758348E-02    -0.81726861350144E-03
   O      -0.11657038370970E-03     0.93226053365369E-05    -0.22034301466954E-03
   H      -0.17261137145335E-02     0.11558623897453E-02     0.27928285198546E-03
   H       0.83894820395131E-03     0.61548528509203E-05    -0.61182445862907E-03
   O      -0.20695484923080E-03    -0.41820514051797E-03     0.15259333259127E-03
   H       0.77267630982833E-03    -0.12332699053892E-02     0.64713357509022E-04
   H       0.14106067527251E-02     0.16868985767876E-02     0.57781133619466E-03
   O      -0.46116881782932E-04    -0.12526179419999E-03    -0.72200179871897E-04
   H       0.96691771433749E-03    -0.27079022090664E-02    -0.13670426860474E-02
   H      -0.20206025421327E-03     0.51355572032575E-03    -0.81271344371653E-03



   Partial temperatures (for each ionic specie) 
   Species  Temp (K)   Mean Square Displacement (a.u.)
        1   3.37E+02     2.8122E+01
        2   6.01E+02     3.7422E+01

  nfi     ekinc              temph  tempp     etot                 enthal               econs                econt              vnhh    xnhh0   vnhp    xnhp0
  12100    0.001366230960211    0.0  512.83    -136.987797812402    -136.987797812402    -136.929332357617    -136.927966126657   0.0000   0.0000   0.0000   0.0000

   writing restart file (with schema): ./h2o_54.save/
     restart      :     18.31s CPU     81.99s WALL (    1000 calls)

 * Physical Quantities at step: 12101


                total energy =     -136.98690040914 Hartree a.u.
              kinetic energy =       97.58943 Hartree a.u.
        electrostatic energy =     -185.31349 Hartree a.u.
                         esr =        0.01129 Hartree a.u.
                       eself =      242.55691 Hartree a.u.
      pseudopotential energy =       -9.38934 Hartree a.u.
  n-l pseudopotential energy =       -6.21738 Hartree a.u.
 exchange-correlation energy =      -33.65611 Hartree a.u.
           average potential =        0.00000 Hartree a.u.



   Eigenvalues (eV), kp =   1 , spin =  1

  -23.73  -23.66  -23.57  -22.92  -22.80  -22.30  -21.84  -21.72  -11.53  -11.38
  -10.92  -10.51  -10.44  -10.36   -9.81   -9.53   -8.13   -8.00   -7.92   -7.52
   -6.76   -6.50   -6.30   -5.96   -5.64   -5.34   -5.21   -4.82   -4.69   -4.52
   -4.23   -4.09


   CELL_PARAMETERS
   13.00000000    0.00000000    0.00000000
    0.00000000   13.00000000    0.00000000
    0.00000000    0.00000000   13.00000000

   System Density [g/cm^3] :              0.7351364820


   System Volume [A.U.^3] :           2197.0000000000


   Center of mass square displacement (a.u.):   0.000000

   ATOMIC_POSITIONS
   O       0.90579828545388E+01     0.19230804714258E+01     0.44408351644192E+01
   H       0.10885384586489E+02     0.16082876274702E+01     0.47872199598982E+01
   H       0.82222506137287E+01     0.29222187035067E+00     0.40854878808685E+01
   O       0.86255726701616E+00    -0.48366585118357E+01     0.44024706529629E+01
   H       0.70118022027401E+00    -0.32868076589267E+01     0.36047161270986E+01
   H       0.30226862361086E+00    -0.57671471368570E+01     0.28448532374887E+01
   O      -0.68676029646516E+01    -0.19504757308666E+01     0.21374281954462E+01
   H      -0.54004162050012E+01    -0.26781178586341E+01     0.13303938897218E+01
   H      -0.76357645234082E+01    -0.33566728169167E+01     0.29484279232497E+01
   O       0.14741352482233E+01     0.61702715707086E+01    -0.17725155032624E+01
   H      -0.83008083197505E-01     0.51603165332208E+01    -0.11550670377496E+01
   H       0.24013193235648E+01     0.55342549717257E+01    -0.31442599864467E+01
   O      -0.28003276455798E+01    -0.25513267230982E+01    -0.59781485085209E+00
   H      -0.33478787517264E+01    -0.10585696974392E+01    -0.14764405283878E+01
   H      -0.10421881862867E+01    -0.28840654767065E+01    -0.13543827611610E+01
   O      -0.41536074429730E+01    -0.44220776639636E+01    -0.64451974252132E+01
   H      -0.37923466337298E+01    -0.40747641706901E+01    -0.46141009518702E+01
   H      -0.25702223866151E+01    -0.55535202193562E+01    -0.70257702203009E+01
   O      -0.72700098180101E+01     0.21860207210787E+01    -0.43333235612836E+01
   H      -0.58184981176476E+01     0.22547133973395E+01    -0.57832185074167E+01
   H      -0.84056710093599E+01     0.79525284505548E+00    -0.43003206799133E+01
   O       0.96228341101117E+01     0.38165310996686E+01    -0.81111651726564E-01
   H       0.87052205434777E+01     0.31453812017599E+01     0.13582730893049E+01
   H       0.80536991466358E+01     0.45454507667829E+01    -0.73352613715076E+00

   ATOMIC_VELOCITIES
   O       0.14292589538479E-03    -0.22587260672805E-03     0.39544937586600E-04
   H       0.75122726949645E-03     0.76793242409949E-03     0.67133236308852E-03
   H       0.86362220453895E-04    -0.26644059082286E-03    -0.13886689210100E-02
   O      -0.56226405735106E-04     0.14025499153620E-03    -0.75127538410075E-04
   H      -0.85369983028449E-04     0.16169616253071E-02    -0.10505875205184E-02
   H      -0.44546234956626E-03     0.13635294230325E-03    -0.37284640622159E-03
   O       0.73547562373943E-04     0.28926920165848E-03    -0.25129865276974E-05
   H       0.20337684887719E-03     0.77858919292712E-03    -0.17682801805434E-02
   H      -0.45521641218144E-03    -0.65472701403690E-03     0.60031924047839E-03
   O       0.18153287353800E-03     0.10825476093778E-03    -0.19129044358681E-03
   H      -0.64108019727420E-03    -0.12717208582576E-02     0.86660006326287E-03
   H      -0.91191579044239E-03     0.45198558888551E-03     0.22734584603271E-02
   O      -0.66240775470897E-04     0.13679049885630E-03     0.49616543939776E-03
   H       0.75861043667321E-03    -0.85633437695392E-03     0.80798734060756E-03
   H       0.15873138103059E-03     0.12072028249180E-02    -0.76916469385309E-03
   O      -0.10855755431129E-03     0.43583038331241E-05    -0.21863889818154E-03
   H      -0.17383507773631E-02     0.11317081863189E-02     0.20848190433014E-03
   H       0.71443188013528E-03     0.12019077278024E-03    -0.55503925941406E-03
   O      -0.19938218520377E-03    -0.41298428205192E-03     0.14912526440300E-03
   H       0.63584850498161E-03    -0.12751537527807E-02     0.15786393364009E-03
   H       0.14227756091636E-02     0.16477441129547E-02     0.54147570387224E-03
   O      -0.50055835327345E-04    -0.12349995421114E-03    -0.73797091822754E-04
   H       0.10244771421073E-02    -0.27406336518194E-02    -0.13077782041353E-02
   H      -0.16948378681150E-03     0.53074517235426E-03    -0.87516863266128E-03



   Partial temperatures (for each ionic specie) 
   Species  Temp (K)   Mean Square Displacement (a.u.)
        1   3.29E+02     2.8131E+01
        2   5.93E+02     3.7397E+01
  12101    0.001341144708711    0.0  505.18    -136.986900409139    -136.986900409139    -136.929307103327    -136.927965958619   0.0000   0.0000   0.0000   0.0000

   writing restart file (with schema): ./h2o_54.save/
     restart      :     18.33s CPU     82.02s WALL (    1001 calls)


   Averaged Physical Quantities
                      accumulated      this run
   ekinc         :        0.00178       0.00168 (AU)
   ekin          :       97.81823      97.83833 (AU)
   epot          :     -228.53972    -228.55817 (AU)
   total energy  :     -136.99651    -137.00445 (AU)
   temperature   :      708.79934     656.09474 (K )
   enthalpy      :     -135.85363    -137.00445 (AU)
   econs         :     -136.91571    -136.92965 (AU)
   pressure      :        0.00000       0.00000 (Gpa)
   volume        :     2197.00000    2197.00000 (AU)



     Called by MAIN_LOOP:
     initialize   :      1.01s CPU      1.02s WALL (       1 calls)
     main_loop    :    913.59s CPU    952.40s WALL (   10000 calls)
     cpr_total    :    932.32s CPU   1034.84s WALL (       1 calls)

     Called by INIT_RUN:
     init_readfil :      0.05s CPU      0.05s WALL (       1 calls)

     Called by CPR:
     cpr_md       :    932.29s CPU   1034.81s WALL (   10000 calls)
     move_electro :    716.43s CPU    753.75s WALL (   10000 calls)

     Called by move_electrons:
     rhoofr       :    101.84s CPU    112.05s WALL (   10000 calls)
     vofrho       :    269.10s CPU    277.53s WALL (   10000 calls)
     dforce       :    183.97s CPU    200.79s WALL (  160000 calls)
     calphi       :      2.08s CPU      2.12s WALL (   10000 calls)
     nlfl         :      0.39s CPU      0.41s WALL (   10000 calls)

     Called by ortho:
     ortho_iter   :     58.98s CPU     59.04s WALL (   10000 calls)
     rsg          :      3.25s CPU      3.27s WALL (   10000 calls)
     rhoset       :     15.73s CPU     15.80s WALL (   10000 calls)
     sigset       :     15.76s CPU     15.80s WALL (   10000 calls)
     tauset       :     15.88s CPU     15.91s WALL (   10000 calls)
     ortho        :    110.01s CPU    110.20s WALL (   10000 calls)
     updatc       :     11.85s CPU     11.90s WALL (   10000 calls)

     Small boxes:

     Low-level routines:
     prefor       :     11.50s CPU     11.79s WALL (   20001 calls)
     nlfq         :    150.05s CPU    151.60s WALL (   10000 calls)
     nlsm1        :     53.28s CPU     53.35s WALL (   10001 calls)
     nlsm2        :    149.41s CPU    150.96s WALL (   10000 calls)
     fft          :     69.09s CPU     76.53s WALL (   81001 calls)
     ffts         :     16.27s CPU     18.02s WALL (   20000 calls)
     fftw         :    206.80s CPU    227.36s WALL (  480000 calls)
     fft_scatt_xy :     24.91s CPU     27.38s WALL (  581001 calls)
     fft_scatt_yz :    126.56s CPU    141.70s WALL (  581001 calls)
     fft_scatt_tg :      3.19s CPU      3.46s WALL (  480000 calls)
     betagx       :      0.61s CPU      0.61s WALL (       1 calls)
     qradx        :      0.00s CPU      0.00s WALL (       1 calls)
     nlinit       :      0.90s CPU      0.90s WALL (       1 calls)
     init_dim     :      0.02s CPU      0.02s WALL (       1 calls)
     newnlinit    :      0.00s CPU      0.00s WALL (       1 calls)
     from_restart :      0.01s CPU      0.01s WALL (       1 calls)
     strucf       :      8.06s CPU      8.34s WALL (   10001 calls)
     calbec       :     53.32s CPU     53.38s WALL (   10001 calls)


     CP           :  15m33.38s CPU  17m15.91s WALL


   This run was terminated on:  22:16: 5  20Apr2021            

=------------------------------------------------------------------------------=
   JOB DONE.
=------------------------------------------------------------------------------=
