
     Program CP v.6.7MaX starts on 20Apr2021 at 21:55:12 

     This program is part of the open-source Quantum ESPRESSO suite
     for quantum simulation of materials; please cite
         "P. Giannozzi et al., J. Phys.:Condens. Matter 21 395502 (2009);
         "P. Giannozzi et al., J. Phys.:Condens. Matter 29 465901 (2017);
          URL http://www.quantum-espresso.org", 
     in publications or presentations arising from this work. More details at
     http://www.quantum-espresso.org/quote

     Parallel version (MPI), running on    12 processors

     MPI processes distributed on     1 nodes
     R & G space division:  proc/nbgrp/npool/nimage =      12
     Reading input from ../water8.in.1.CPMD
Warning: card  &CELL ignored
Warning: card     CELL_DYNAMICS = 'NONE', ignored
Warning: card  / ignored

   Job Title: Water 8 molecules


   Atomic Pseudopotentials Parameters
   ----------------------------------

   Reading pseudopotential for specie #  1 from file :
   ./O_ONCV_PBE-1.2.upf
     Message from routine read_pp_mesh:
     mesh size missing, using the one in header
   file type is xml

   Reading pseudopotential for specie #  2 from file :
   ./H_ONCV_PBE-1.2.upf
     Message from routine read_pp_mesh:
     mesh size missing, using the one in header
   file type is xml


   Main Simulation Parameters (from input)
   ---------------------------------------
   Restart Mode       =       1   restart        
   Number of MD Steps =    1000
   Print out every           10 MD Steps
   Reads from unit    =      50
   Writes to unit     =      51
   MD Simulation time step            =       5.00
   Electronic fictitious mass (emass) =      50.00
   emass cut-off                      =       2.50

   Simulation Cell Parameters (from input)
   external pressure       =            0.00 [KBar]
   wmass (calculated)      =        19964.81 [AU]
   ibrav =    1
   alat  =    13.00000000
   a1    =    13.00000000    0.00000000    0.00000000
   a2    =     0.00000000   13.00000000    0.00000000
   a3    =     0.00000000    0.00000000   13.00000000

   b1    =     0.07692308    0.00000000    0.00000000
   b2    =     0.00000000    0.07692308    0.00000000
   b3    =     0.00000000    0.00000000    0.07692308
   omega =    2197.00000000

   Energy Cut-offs
   ---------------
   Ecutwfc =   50.0 Ry,      Ecutrho =  200.0 Ry,      Ecuts =  200.0 Ry
   Gcutwfc =   14.6     ,    Gcutrho =   29.3          Gcuts =   29.3
   NOTA BENE: refg, mmx =   0.050000  4800
   Eigenvalues calculated without the kinetic term contribution
   Orthog. with lagrange multipliers : eps =   0.10E-08,  max = 300
   Electron dynamics with newton equations
   Electron dynamics : the temperature is not controlled

   Electronic states
   -----------------
   Number of Electrons=    64, of States =    32
   Occupation numbers :
   2.00 2.00 2.00 2.00 2.00 2.00 2.00 2.00 2.00 2.00
   2.00 2.00 2.00 2.00 2.00 2.00 2.00 2.00 2.00 2.00
   2.00 2.00 2.00 2.00 2.00 2.00 2.00 2.00 2.00 2.00
   2.00 2.00


   Exchange and correlations functionals
   -------------------------------------
     Exchange-correlation= PBE
                           (   1   4   3   4   0   0   0)


   Ions Simulation Parameters
   --------------------------
   Ions are allowed to move
   Ions dynamics with newton equations
   the temperature is computed for    72 degrees of freedom
   ion dynamics with fricp =  0.0000 and greasp =  1.0000
   Ionic position (from input)
   sorted by specie, and converted to real a.u. coordinates
   Species   1 atoms =    8 mass =     29166.22 (a.u.),        16.00 (amu) rcmax =   0.50 (a.u.)
        4.842510     3.796199     3.732738
        3.735657    -4.474700     2.924274
       -4.546686    -3.542262     3.060744
       -3.436506     4.804268     3.377234
        3.614420    -4.282746    -3.989998
       -4.437095    -4.025366    -4.085110
       -3.558789     3.877301    -3.819233
        3.837783     3.820409    -4.507997
   Species   2 atoms =   16 mass =      1837.29 (a.u.),         1.01 (amu) rcmax =   0.50 (a.u.)
        4.004590     5.986780     3.533013
        4.365118     3.872322     5.879773
        6.059148    -3.795031     3.153403
        2.874962    -3.958672     4.675187
       -3.748838    -5.811626     3.320758
       -4.053948    -2.574364     4.768354
       -5.904151     4.217430     3.801415
       -2.303077     4.672005     5.082136
        3.119866    -4.561070    -2.002200
        5.914480    -3.952983    -3.866628
       -3.950822    -3.684809    -2.102720
       -3.940399    -6.190475    -4.165351
       -3.233219     3.435242    -1.818055
       -5.690475     3.479664    -3.789435
        2.013136     3.092241    -3.913112
        3.659354     6.200317    -4.387039
   Ionic position will be re-read from restart file

   All atoms are allowed to move
   Ionic temperature is not controlled


   Cell Dynamics Parameters (from STDIN)
   -------------------------------------
   Starting cell generated from CELLDM
   Cell parameters will be re-read from restart file
   Constant VOLUME Molecular dynamics
   cell parameters are not allowed to move

   Verbosity: iverbosity =  0



   Simulation dimensions initialization
   ------------------------------------

   unit vectors of full simulation cell
   in real space:                         in reciprocal space (units 2pi/alat):
   1    13.0000    0.0000    0.0000              1.0000    0.0000    0.0000
   2     0.0000   13.0000    0.0000              0.0000    1.0000    0.0000
   3     0.0000    0.0000   13.0000              0.0000    0.0000    1.0000

     Parallelization info
     --------------------
     sticks:   dense  smooth     PW     G-vecs:    dense   smooth      PW
     Min         224     224     55                 8748     8748    1096
     Max         226     226     58                 8754     8754    1104
     Sum        2701    2701    673               105015   105015   13205


   Real Mesh
   ---------
   Global Dimensions   Local  Dimensions   Processor Grid
   .X.   .Y.   .Z.     .X.   .Y.   .Z.     .X.   .Y.   .Z.
    60    60    60      60    60     5       1     1    12
   Array leading dimensions ( nr1x, nr2x, nr3x )   =     60    60    60
   Local number of cell to store the grid ( nrxx ) =      18000
   Number of x-y planes for each processors: 
  |  60,   5  |  60,   5  |  60,   5  |  60,   5  |  60,   5
  |  60,   5  |  60,   5  |  60,   5  |  60,   5  |  60,   5
  |  60,   5  |  60,   5  |

   Smooth Real Mesh
   ----------------
   Global Dimensions   Local  Dimensions   Processor Grid
   .X.   .Y.   .Z.     .X.   .Y.   .Z.     .X.   .Y.   .Z.
    60    60    60      60    60     5       1     1    12
   Array leading dimensions ( nr1x, nr2x, nr3x )   =     60    60    60
   Local number of cell to store the grid ( nrxx ) =      18000
   Number of x-y planes for each processors: 
  |  60,   5  |  60,   5  |  60,   5  |  60,   5  |  60,   5
  |  60,   5  |  60,   5  |  60,   5  |  60,   5  |  60,   5
  |  60,   5  |  60,   5  |

   Reciprocal Space Mesh
   ---------------------
   Large Mesh
     Global(ngm_g)    MinLocal       MaxLocal      Average
          52508           4374           4377        4375.67
   Smooth Mesh
     Global(ngms_g)   MinLocal       MaxLocal      Average
          52508           4374           4377        4375.67
   Wave function Mesh
     Global(ngw_g)    MinLocal       MaxLocal      Average
           6603            548            552         550.25


   System geometry initialization
   ------------------------------
   cell parameters read from restart file
   ibrav =    1       cell parameters 


   cell at current step : h(t)
      13.00000       0.00000       0.00000
       0.00000      13.00000       0.00000
       0.00000       0.00000      13.00000

   cell at previous step : h(t-dt)
      13.00000       0.00000       0.00000
       0.00000      13.00000       0.00000
       0.00000       0.00000      13.00000


   Matrix Multiplication Performances
   ortho mmul, time for parallel driver      =   0.00006 with    1 procs

   Constraints matrixes will be distributed block like on
   ortho sub-group =    1*   1 procs



   Pseudopotentials initialization
   -------------------------------


   Common initialization

   Specie:     1
   1  indv=  1   ang. mom=  0
   2  indv=  2   ang. mom=  0
   3  indv=  3   ang. mom=  1
   4  indv=  3   ang. mom=  1
   5  indv=  3   ang. mom=  1
   6  indv=  4   ang. mom=  1
   7  indv=  4   ang. mom=  1
   8  indv=  4   ang. mom=  1

                        dion 
   9.7572   0.0000   0.0000   0.0000
   0.0000   1.3761   0.0000   0.0000
   0.0000   0.0000  -4.8069   0.0000
   0.0000   0.0000   0.0000  -1.6162

   Specie:     2
   1  indv=  1   ang. mom=  0
   2  indv=  2   ang. mom=  0

                        dion 
 -12.0082   0.0000
   0.0000  -0.5168

   Cell parameters from input file are used in electron mass preconditioning
   init_tpiba2=    0.23360010

   Short Legend and Physical Units in the Output
   ---------------------------------------------
   NFI    [int]          - step index
   EKINC  [HARTREE A.U.] - kinetic energy of the fictitious electronic dynamics
   TEMPH  [K]            - Temperature of the fictitious cell dynamics
   TEMP   [K]            - Ionic temperature
   ETOT   [HARTREE A.U.] - Scf total energy (Kohn-Sham hamiltonian)
   ENTHAL [HARTREE A.U.] - Enthalpy ( ETOT + P * V )
   ECONS  [HARTREE A.U.] - Enthalpy + kinetic energy of ions and cell
   ECONT  [HARTREE A.U.] - Constant of motion for the CP lagrangian


   formf: eself=   242.55691
   formf:     vps(g=0)=  -0.0005593     rhops(g=0)=  -0.0026914
   formf:     vps(g=0)=  -0.0005508     rhops(g=0)=  -0.0026524
   formf:     vps(g=0)=  -0.0005508     rhops(g=0)=  -0.0026524
   formf:     vps(g=0)=  -0.0005265     rhops(g=0)=  -0.0025387
   formf:     vps(g=0)=  -0.0005265     rhops(g=0)=  -0.0025387
   formf: sum_g vps(g)=  -0.8825069 sum_g rhops(g)=  -4.3113902
   formf:     vps(g=0)=  -0.0002744     rhops(g=0)=  -0.0004486
   formf:     vps(g=0)=  -0.0002718     rhops(g=0)=  -0.0004421
   formf:     vps(g=0)=  -0.0002718     rhops(g=0)=  -0.0004421
   formf:     vps(g=0)=  -0.0002644     rhops(g=0)=  -0.0004231
   formf:     vps(g=0)=  -0.0002644     rhops(g=0)=  -0.0004231
   formf: sum_g vps(g)=  -1.1488875 sum_g rhops(g)=  -0.7185650
   Delta V(G=0):   0.022861Ry,    0.622068eV

  nfi     ekinc              temph  tempp     etot                 enthal               econs                econt              vnhh    xnhh0   vnhp    xnhp0
    101    0.002647795261357    0.0 1120.65    -136.949154552816    -136.949154552816    -136.821395032108    -136.818747236847   0.0000   0.0000   0.0000   0.0000
    102    0.002671965343995    0.0 1144.41    -136.951891455362    -136.951891455362    -136.821422809187    -136.818750843843   0.0000   0.0000   0.0000   0.0000
    103    0.002774578315658    0.0 1170.25    -136.954930398938    -136.954930398938    -136.821515596695    -136.818741018379   0.0000   0.0000   0.0000   0.0000
    104    0.002948550828855    0.0 1197.64    -136.958235439168    -136.958235439168    -136.821697695762    -136.818749144933   0.0000   0.0000   0.0000   0.0000
    105    0.003064619011619    0.0 1226.95    -136.961706792592    -136.961706792592    -136.821827779665    -136.818763160653   0.0000   0.0000   0.0000   0.0000
    106    0.003042824929818    0.0 1258.03    -136.965231504402    -136.965231504402    -136.821809644691    -136.818766819761   0.0000   0.0000   0.0000   0.0000
    107    0.002987350065539    0.0 1289.30    -136.968746703351    -136.968746703351    -136.821759861375    -136.818772511310   0.0000   0.0000   0.0000   0.0000
    108    0.003037741444344    0.0 1318.70    -136.972151486159    -136.972151486159    -136.821813251393    -136.818775509949   0.0000   0.0000   0.0000   0.0000
    109    0.003207453283100    0.0 1345.30    -136.975353568616    -136.975353568616    -136.821981862170    -136.818774408887   0.0000   0.0000   0.0000   0.0000
    110    0.003375797375393    0.0 1369.64    -136.978302372423    -136.978302372423    -136.822156286240    -136.818780488865   0.0000   0.0000   0.0000   0.0000

   writing restart file (with schema): ./h2o_51.save/
     restart      :      0.02s CPU      0.03s WALL (       1 calls)
    111    0.003405082024802    0.0 1392.33    -136.980923226957    -136.980923226957    -136.822190211700    -136.818785129675   0.0000   0.0000   0.0000   0.0000
    112    0.003298109808677    0.0 1412.87    -136.983156690584    -136.983156690584    -136.822082066150    -136.818783956342   0.0000   0.0000   0.0000   0.0000
    113    0.003189072635334    0.0 1429.75    -136.984976407486    -136.984976407486    -136.821977358358    -136.818788285723   0.0000   0.0000   0.0000   0.0000
    114    0.003184792500702    0.0 1441.63    -136.986326901418    -136.986326901418    -136.821974055766    -136.818789263266   0.0000   0.0000   0.0000   0.0000
    115    0.003286787871341    0.0 1448.23    -136.987179982806    -136.987179982806    -136.822074051306    -136.818787263435   0.0000   0.0000   0.0000   0.0000
    116    0.003404480409591    0.0 1450.30    -136.987534782159    -136.987534782159    -136.822193063546    -136.818788583137   0.0000   0.0000   0.0000   0.0000
    117    0.003432460914267    0.0 1448.71    -136.987377984990    -136.987377984990    -136.822217126346    -136.818784665432   0.0000   0.0000   0.0000   0.0000
    118    0.003360309676937    0.0 1443.72    -136.986732134251    -136.986732134251    -136.822141010425    -136.818780700748   0.0000   0.0000   0.0000   0.0000
    119    0.003266826725041    0.0 1434.85    -136.985628566579    -136.985628566579    -136.822048017912    -136.818781191187   0.0000   0.0000   0.0000   0.0000
    120    0.003226289394186    0.0 1421.66    -136.984081293824    -136.984081293824    -136.822004889408    -136.818778600014   0.0000   0.0000   0.0000   0.0000

   writing restart file (with schema): ./h2o_51.save/
     restart      :      0.03s CPU      0.06s WALL (       2 calls)
    121    0.003245556002879    0.0 1404.41    -136.982130273813    -136.982130273813    -136.822020285314    -136.818774729311   0.0000   0.0000   0.0000   0.0000
    122    0.003256280923652    0.0 1384.12    -136.979825020570    -136.979825020570    -136.822028571015    -136.818772290091   0.0000   0.0000   0.0000   0.0000
    123    0.003190236530630    0.0 1361.77    -136.977204409475    -136.977204409475    -136.821956018312    -136.818765781781   0.0000   0.0000   0.0000   0.0000
    124    0.003069026123510    0.0 1337.66    -136.974330706824    -136.974330706824    -136.821830328174    -136.818761302050   0.0000   0.0000   0.0000   0.0000
    125    0.002969410548518    0.0 1311.58    -136.971258203591    -136.971258203591    -136.821730691008    -136.818761280459   0.0000   0.0000   0.0000   0.0000
    126    0.002932858783245    0.0 1283.53    -136.968020444489    -136.968020444489    -136.821690848545    -136.818757989762   0.0000   0.0000   0.0000   0.0000
    127    0.002936104975095    0.0 1254.13    -136.964669833418    -136.964669833418    -136.821692128509    -136.818756023534   0.0000   0.0000   0.0000   0.0000
    128    0.002920025468231    0.0 1224.26    -136.961245768690    -136.961245768690    -136.821673905748    -136.818753880280   0.0000   0.0000   0.0000   0.0000
    129    0.002860131779818    0.0 1194.41    -136.957779742773    -136.957779742773    -136.821610369462    -136.818750237682   0.0000   0.0000   0.0000   0.0000
    130    0.002789549868392    0.0 1164.60    -136.954308874162    -136.954308874162    -136.821538862487    -136.818749312618   0.0000   0.0000   0.0000   0.0000

   writing restart file (with schema): ./h2o_51.save/
     restart      :      0.05s CPU      0.15s WALL (       3 calls)
    131    0.002743458707875    0.0 1134.72    -136.950856616012    -136.950856616012    -136.821492807955    -136.818749349247   0.0000   0.0000   0.0000   0.0000
    132    0.002718578620192    0.0 1104.97    -136.947440771389    -136.947440771389    -136.821468365216    -136.818749786596   0.0000   0.0000   0.0000   0.0000
    133    0.002688471304752    0.0 1075.71    -136.944074660501    -136.944074660501    -136.821437931019    -136.818749459715   0.0000   0.0000   0.0000   0.0000
    134    0.002640857656430    0.0 1047.14    -136.940769980109    -136.940769980109    -136.821390101009    -136.818749243353   0.0000   0.0000   0.0000   0.0000
    135    0.002587601749069    0.0 1019.24    -136.937534951095    -136.937534951095    -136.821336244971    -136.818748643222   0.0000   0.0000   0.0000   0.0000
    136    0.002543552639023    0.0  991.96    -136.934381409385    -136.934381409385    -136.821292476302    -136.818748923663   0.0000   0.0000   0.0000   0.0000
    137    0.002507185326937    0.0  965.44    -136.931321559436    -136.931321559436    -136.821256621478    -136.818749436151   0.0000   0.0000   0.0000   0.0000
    138    0.002470181668444    0.0  939.90    -136.928372324099    -136.928372324099    -136.821219374791    -136.818749193122   0.0000   0.0000   0.0000   0.0000
    139    0.002432709393992    0.0  915.55    -136.925559152069    -136.925559152069    -136.821181518569    -136.818748809175   0.0000   0.0000   0.0000   0.0000
    140    0.002401819416147    0.0  892.65    -136.922913639799    -136.922913639799    -136.821147071704    -136.818745252288   0.0000   0.0000   0.0000   0.0000

   writing restart file (with schema): ./h2o_51.save/
     restart      :      0.07s CPU      0.22s WALL (       4 calls)
    141    0.002381910486135    0.0  871.60    -136.920490584839    -136.920490584839    -136.821123715235    -136.818741804749   0.0000   0.0000   0.0000   0.0000
    142    0.002363475414169    0.0  853.05    -136.918353116318    -136.918353116318    -136.821101113638    -136.818737638224   0.0000   0.0000   0.0000   0.0000
    143    0.002335990560632    0.0  837.79    -136.916580233103    -136.916580233103    -136.821067950714    -136.818731960154   0.0000   0.0000   0.0000   0.0000
    144    0.002303948467658    0.0  826.63    -136.915271359464    -136.915271359464    -136.821030679071    -136.818726730604   0.0000   0.0000   0.0000   0.0000
    145    0.002282268172754    0.0  820.37    -136.914528870284    -136.914528870284    -136.821002432424    -136.818720164251   0.0000   0.0000   0.0000   0.0000
    146    0.002288137315299    0.0  819.78    -136.914459794412    -136.914459794412    -136.821000975878    -136.818712838563   0.0000   0.0000   0.0000   0.0000
    147    0.002328422142893    0.0  825.70    -136.915169127791    -136.915169127791    -136.821035387644    -136.818706965501   0.0000   0.0000   0.0000   0.0000
    148    0.002389561792305    0.0  838.99    -136.916743467607    -136.916743467607    -136.821094244791    -136.818704682998   0.0000   0.0000   0.0000   0.0000
    149    0.002451078723537    0.0  860.31    -136.919234945174    -136.919234945174    -136.821155115765    -136.818704037041   0.0000   0.0000   0.0000   0.0000
    150    0.002512636802924    0.0  889.81    -136.922661911367    -136.922661911367    -136.821219378653    -136.818706741850   0.0000   0.0000   0.0000   0.0000

   writing restart file (with schema): ./h2o_51.save/
     restart      :      0.08s CPU      0.30s WALL (       5 calls)
    151    0.002593216361441    0.0  927.00    -136.926988729612    -136.926988729612    -136.821306180707    -136.818712964345   0.0000   0.0000   0.0000   0.0000
    152    0.002710341583491    0.0  970.92    -136.932122084348    -136.932122084348    -136.821431834945    -136.818721493361   0.0000   0.0000   0.0000   0.0000
    153    0.002861931014390    0.0 1020.35    -136.937921928531    -136.937921928531    -136.821597055736    -136.818735124722   0.0000   0.0000   0.0000   0.0000
    154    0.003024561959108    0.0 1073.78    -136.944192224545    -136.944192224545    -136.821775359937    -136.818750797978   0.0000   0.0000   0.0000   0.0000
    155    0.003178872266543    0.0 1129.39    -136.950702277480    -136.950702277480    -136.821946390082    -136.818767517815   0.0000   0.0000   0.0000   0.0000
    156    0.003322199809546    0.0 1184.98    -136.957200476763    -136.957200476763    -136.822106739770    -136.818784539960   0.0000   0.0000   0.0000   0.0000
    157    0.003458345593568    0.0 1238.28    -136.963429179995    -136.963429179995    -136.822258866996    -136.818800521402   0.0000   0.0000   0.0000   0.0000
    158    0.003586991192746    0.0 1287.15    -136.969144445273    -136.969144445273    -136.822402661866    -136.818815670674   0.0000   0.0000   0.0000   0.0000
    159    0.003701798232580    0.0 1329.73    -136.974125461745    -136.974125461745    -136.822529602654    -136.818827804421   0.0000   0.0000   0.0000   0.0000
    160    0.003795959241255    0.0 1364.51    -136.978193768779    -136.978193768779    -136.822632165647    -136.818836206405   0.0000   0.0000   0.0000   0.0000

   writing restart file (with schema): ./h2o_51.save/
     restart      :      0.11s CPU      0.44s WALL (       6 calls)
    161    0.003861454632556    0.0 1390.47    -136.981223376213    -136.981223376213    -136.822702131303    -136.818840676671   0.0000   0.0000   0.0000   0.0000
    162    0.003888610778754    0.0 1407.09    -136.983145377709    -136.983145377709    -136.822729844262    -136.818841233484   0.0000   0.0000   0.0000   0.0000
    163    0.003876189898017    0.0 1414.29    -136.983950612671    -136.983950612671    -136.822713842900    -136.818837653002   0.0000   0.0000   0.0000   0.0000
    164    0.003836318136523    0.0 1412.41    -136.983690477279    -136.983690477279    -136.822667807673    -136.818831489537   0.0000   0.0000   0.0000   0.0000
    165    0.003781048358364    0.0 1402.24    -136.982465739875    -136.982465739875    -136.822603311272    -136.818822262914   0.0000   0.0000   0.0000   0.0000
    166    0.003713024781797    0.0 1385.05    -136.980425213397    -136.980425213397    -136.822522492478    -136.818809467696   0.0000   0.0000   0.0000   0.0000
    167    0.003629679385398    0.0 1362.52    -136.977760593338    -136.977760593338    -136.822425638579    -136.818795959194   0.0000   0.0000   0.0000   0.0000
    168    0.003531351353360    0.0 1336.51    -136.974681879810    -136.974681879810    -136.822312439262    -136.818781087909   0.0000   0.0000   0.0000   0.0000
    169    0.003427515046085    0.0 1308.87    -136.971412818993    -136.971412818993    -136.822194559469    -136.818767044423   0.0000   0.0000   0.0000   0.0000
    170    0.003326980554401    0.0 1281.43    -136.968171802348    -136.968171802348    -136.822081732382    -136.818754751827   0.0000   0.0000   0.0000   0.0000

   writing restart file (with schema): ./h2o_51.save/
     restart      :      0.12s CPU      0.47s WALL (       7 calls)
    171    0.003233236879441    0.0 1255.91    -136.965157174648    -136.965157174648    -136.821976719073    -136.818743482194   0.0000   0.0000   0.0000   0.0000
    172    0.003151721204204    0.0 1233.75    -136.962540701016    -136.962540701016    -136.821887240539    -136.818735519335   0.0000   0.0000   0.0000   0.0000
    173    0.003087992951312    0.0 1215.99    -136.960448230342    -136.960448230342    -136.821818511181    -136.818730518229   0.0000   0.0000   0.0000   0.0000
    174    0.003042646037242    0.0 1203.34    -136.958958629789    -136.958958629789    -136.821771985638    -136.818729339601   0.0000   0.0000   0.0000   0.0000
    175    0.003011142491514    0.0 1196.05    -136.958098803688    -136.958098803688    -136.821742617874    -136.818731475383   0.0000   0.0000   0.0000   0.0000
    176    0.002993607990228    0.0 1193.94    -136.957845106854    -136.957845106854    -136.821729336184    -136.818735728194   0.0000   0.0000   0.0000   0.0000
    177    0.002998496442401    0.0 1196.36    -136.958131950776    -136.958131950776    -136.821740885678    -136.818742389236   0.0000   0.0000   0.0000   0.0000
    178    0.003026102312232    0.0 1202.39    -136.958856900447    -136.958856900447    -136.821777721109    -136.818751618797   0.0000   0.0000   0.0000   0.0000
    179    0.003058948086834    0.0 1211.07    -136.959889090913    -136.959889090913    -136.821820576671    -136.818761628584   0.0000   0.0000   0.0000   0.0000
    180    0.003081025254132    0.0 1221.30    -136.961087032401    -136.961087032401    -136.821851903806    -136.818770878552   0.0000   0.0000   0.0000   0.0000

   writing restart file (with schema): ./h2o_51.save/
     restart      :      0.14s CPU      0.55s WALL (       8 calls)
    181    0.003095446312579    0.0 1231.83    -136.962310468841    -136.962310468841    -136.821875365714    -136.818779919402   0.0000   0.0000   0.0000   0.0000
    182    0.003113734514500    0.0 1241.37    -136.963422654441    -136.963422654441    -136.821900517015    -136.818786782500   0.0000   0.0000   0.0000   0.0000
    183    0.003136535788419    0.0 1248.88    -136.964308337965    -136.964308337965    -136.821929230144    -136.818792694356   0.0000   0.0000   0.0000   0.0000
    184    0.003149065085395    0.0 1253.68    -136.964872743285    -136.964872743285    -136.821946427720    -136.818797362634   0.0000   0.0000   0.0000   0.0000
    185    0.003142467702535    0.0 1255.23    -136.965044593984    -136.965044593984    -136.821941722291    -136.818799254588   0.0000   0.0000   0.0000   0.0000
    186    0.003127278245103    0.0 1253.07    -136.964784096639    -136.964784096639    -136.821927203989    -136.818799925744   0.0000   0.0000   0.0000   0.0000
    187    0.003113052770048    0.0 1246.97    -136.964073839951    -136.964073839951    -136.821912190092    -136.818799137322   0.0000   0.0000   0.0000   0.0000
    188    0.003092361826703    0.0 1237.04    -136.962918746402    -136.962918746402    -136.821889578072    -136.818797216245   0.0000   0.0000   0.0000   0.0000
    189    0.003054054610476    0.0 1223.59    -136.961343012632    -136.961343012632    -136.821847934399    -136.818793879789   0.0000   0.0000   0.0000   0.0000
    190    0.003003497090912    0.0 1206.92    -136.959388162388    -136.959388162388    -136.821793012288    -136.818789515198   0.0000   0.0000   0.0000   0.0000

   writing restart file (with schema): ./h2o_51.save/
     restart      :      0.17s CPU      0.58s WALL (       9 calls)
    191    0.002956344314739    0.0 1187.38    -136.957108650138    -136.957108650138    -136.821740724522    -136.818784380207   0.0000   0.0000   0.0000   0.0000
    192    0.002914376715069    0.0 1165.52    -136.954569185814    -136.954569185814    -136.821693570255    -136.818779193540   0.0000   0.0000   0.0000   0.0000
    193    0.002861260291021    0.0 1142.09    -136.951839421899    -136.951839421899    -136.821635554060    -136.818774293769   0.0000   0.0000   0.0000   0.0000
    194    0.002789290619616    0.0 1117.78    -136.948990499513    -136.948990499513    -136.821557986740    -136.818768696120   0.0000   0.0000   0.0000   0.0000
    195    0.002718123199392    0.0 1093.08    -136.946097807039    -136.946097807039    -136.821481463089    -136.818763339889   0.0000   0.0000   0.0000   0.0000
    196    0.002671692423500    0.0 1068.40    -136.943233536115    -136.943233536115    -136.821429871093    -136.818758178669   0.0000   0.0000   0.0000   0.0000
    197    0.002646814447870    0.0 1044.38    -136.940465139973    -136.940465139973    -136.821400350474    -136.818753536026   0.0000   0.0000   0.0000   0.0000
    198    0.002617420315960    0.0 1021.75    -136.937852593024    -136.937852593024    -136.821367348724    -136.818749928408   0.0000   0.0000   0.0000   0.0000
    199    0.002569136257435    0.0 1001.07    -136.935443825762    -136.935443825762    -136.821316148076    -136.818747011818   0.0000   0.0000   0.0000   0.0000

 * Physical Quantities at step:   200

   from rhoofr: total integrated electronic density
   in g-space =     64.000000   in r-space =    64.000000


                total energy =     -136.93327519041 Hartree a.u.
              kinetic energy =       97.57712 Hartree a.u.
        electrostatic energy =     -185.37083 Hartree a.u.
                         esr =        0.01260 Hartree a.u.
                       eself =      242.55691 Hartree a.u.
      pseudopotential energy =       -9.31187 Hartree a.u.
  n-l pseudopotential energy =       -6.15639 Hartree a.u.
 exchange-correlation energy =      -33.67131 Hartree a.u.
           average potential =        0.00000 Hartree a.u.



   Eigenvalues (eV), kp =   1 , spin =  1

  -24.49  -23.79  -23.67  -23.14  -22.57  -22.29  -21.86  -20.08  -11.90  -11.70
  -11.02  -10.52  -10.33  -10.28  -10.14   -8.71   -8.55   -8.06   -7.85   -7.53
   -7.14   -6.65   -6.54   -6.44   -5.61   -5.30   -5.20   -4.94   -4.83   -4.68
   -4.10   -3.48


   CELL_PARAMETERS
   13.00000000    0.00000000    0.00000000
    0.00000000   13.00000000    0.00000000
    0.00000000    0.00000000   13.00000000

   System Density [g/cm^3] :              0.7351364820


   System Volume [A.U.^3] :           2197.0000000000


   Center of mass square displacement (a.u.):   0.000000

   ATOMIC_POSITIONS
   O       0.55633978561049E+01     0.37015247882465E+01     0.36627632595268E+01
   H       0.50431069023091E+01     0.53066995779448E+01     0.29627748187740E+01
   H       0.47495681416398E+01     0.34687199008533E+01     0.53370772041185E+01
   O       0.35725126320475E+01    -0.48148936531877E+01     0.21514821636009E+01
   H       0.57945597711842E+01    -0.37072061271307E+01     0.28496502096778E+01
   H       0.24389297495035E+01    -0.44570067554638E+01     0.37396172896456E+01
   O      -0.47200038694724E+01    -0.32611825340941E+01     0.30281195940325E+01
   H      -0.37938075915683E+01    -0.52107039316617E+01     0.30050816725099E+01
   H      -0.50380866395925E+01    -0.28188767144535E+01     0.49678901916251E+01
   O      -0.27683553840793E+01     0.52440297576231E+01     0.31218963351688E+01
   H      -0.43652774779617E+01     0.45640639736020E+01     0.38542305038981E+01
   H      -0.18108860715478E+01     0.54150950528102E+01     0.48732843300577E+01
   O       0.30313391392259E+01    -0.44432373723670E+01    -0.34476370072785E+01
   H       0.30580248036990E+01    -0.52073620212680E+01    -0.18868382313880E+01
   H       0.46829113034898E+01    -0.41343814470112E+01    -0.33285737072350E+01
   O      -0.47571257471770E+01    -0.40246521932290E+01    -0.43246459072207E+01
   H      -0.39477947432317E+01    -0.26984875144304E+01    -0.33001098240804E+01
   H      -0.44717204640466E+01    -0.57416651767532E+01    -0.39271246895037E+01
   O      -0.40265539440199E+01     0.39152345220022E+01    -0.32739037042563E+01
   H      -0.43435680328898E+01     0.39100067348736E+01    -0.13309257013300E+01
   H      -0.58729390247864E+01     0.33164054826247E+01    -0.40638854247283E+01
   O       0.41868111877485E+01     0.36732861393335E+01    -0.41261577178778E+01
   H       0.28520608680811E+01     0.28974368811984E+01    -0.28351680821711E+01
   H       0.37228548822943E+01     0.52542704489609E+01    -0.43232803635886E+01

   ATOMIC_VELOCITIES
   O       0.21385836292999E-03    -0.27318345339502E-03    -0.25944238122000E-04
   H       0.14310237216069E-02    -0.12041742933761E-02     0.41338789991175E-03
   H      -0.37135900501246E-03     0.84138316131637E-03    -0.21797517749224E-02
   O      -0.19321915867433E-03    -0.10489753206262E-03    -0.68653257985294E-03
   H       0.21457848789540E-02     0.81306301563734E-03    -0.10015559178301E-02
   H      -0.16407474238573E-02    -0.60785309367587E-03     0.78113521036781E-03
   O      -0.10733358481589E-03     0.15218474295213E-03    -0.43364657596967E-04
   H       0.10383257226437E-02     0.94118482886928E-03    -0.14432967438164E-02
   H      -0.23851485079701E-03     0.88225981095191E-03     0.25415563855046E-02
   O       0.36228743238355E-03     0.18312461539123E-03    -0.33052562093769E-03
   H       0.77128282763443E-03     0.36237675146769E-03    -0.18198591827921E-03
   H       0.15231952190542E-02     0.67077992990119E-03     0.20474013846509E-02
   O      -0.25613284513849E-03     0.40036412170658E-04     0.20616699840872E-03
   H      -0.16058169447616E-04    -0.14324520413181E-02     0.25832520755471E-02
   H      -0.89399897130343E-03    -0.14370319296292E-02     0.27320814538163E-02
   O      -0.29956898816544E-03     0.95838672446297E-04    -0.37474592112982E-03
   H       0.21954597562075E-02     0.13844106407325E-02     0.16383849034675E-02
   H       0.36367831924827E-03    -0.31839906558812E-02     0.18514090024349E-02
   O      -0.35513468324549E-03     0.17100810696229E-03     0.19645033536594E-03
   H       0.44343897031947E-03     0.70409464516098E-03     0.27135883729427E-02
   H       0.14656838263483E-02     0.15935483471733E-03    -0.33713586830699E-03
   O       0.25931627762248E-03    -0.18881287513227E-03     0.25454799571613E-03
   H      -0.15529834449211E-02    -0.49955677716438E-03     0.10970875970931E-02
   H      -0.69652113592272E-03     0.41081529638921E-03    -0.49321754231117E-03



   Partial temperatures (for each ionic specie) 
   Species  Temp (K)   Mean Square Displacement (a.u.)
        1   6.38E+02     4.6435E-01
        2   1.15E+03     1.1671E+00

  nfi     ekinc              temph  tempp     etot                 enthal               econs                econt              vnhh    xnhh0   vnhp    xnhp0
    200    0.002519288597241    0.0  982.51    -136.933275190409    -136.933275190409    -136.821263862205    -136.818744573608   0.0000   0.0000   0.0000   0.0000

   writing restart file (with schema): ./h2o_51.save/
     restart      :      0.19s CPU      0.66s WALL (      10 calls)
    201    0.002494658229450    0.0  966.05    -136.931371878733    -136.931371878733    -136.821237676521    -136.818743018291   0.0000   0.0000   0.0000   0.0000
    202    0.002497292593160    0.0  951.76    -136.929745223438    -136.929745223438    -136.821239867068    -136.818742574475   0.0000   0.0000   0.0000   0.0000
    203    0.002505396186022    0.0  939.82    -136.928392628827    -136.928392628827    -136.821247876107    -136.818742479921   0.0000   0.0000   0.0000   0.0000
    204    0.002503114943089    0.0  930.28    -136.927303024446    -136.927303024446    -136.821246568043    -136.818743453100   0.0000   0.0000   0.0000   0.0000
    205    0.002494393486321    0.0  922.90    -136.926454497192    -136.926454497192    -136.821239027367    -136.818744633881   0.0000   0.0000   0.0000   0.0000
    206    0.002491241658909    0.0  917.36    -136.925821015075    -136.925821015075    -136.821236761244    -136.818745519585   0.0000   0.0000   0.0000   0.0000
    207    0.002496415768215    0.0  913.41    -136.925376611390    -136.925376611390    -136.821243451733    -136.818747035965   0.0000   0.0000   0.0000   0.0000
    208    0.002503122216866    0.0  910.84    -136.925091599936    -136.925091599936    -136.821250967268    -136.818747845051   0.0000   0.0000   0.0000   0.0000
    209    0.002509917773211    0.0  909.46    -136.924941632867    -136.924941632867    -136.821258227791    -136.818748310017   0.0000   0.0000   0.0000   0.0000
    210    0.002520309787477    0.0  909.06    -136.924907252719    -136.924907252719    -136.821269314868    -136.818749005080   0.0000   0.0000   0.0000   0.0000

   writing restart file (with schema): ./h2o_51.save/
     restart      :      0.21s CPU      0.73s WALL (      11 calls)
    211    0.002531744377354    0.0  909.52    -136.924971139173    -136.924971139173    -136.821280723599    -136.818748979222   0.0000   0.0000   0.0000   0.0000
    212    0.002538820154860    0.0  910.81    -136.925124019183    -136.925124019183    -136.821287233526    -136.818748413371   0.0000   0.0000   0.0000   0.0000
    213    0.002542825090026    0.0  912.87    -136.925363235636    -136.925363235636    -136.821290986096    -136.818748161006   0.0000   0.0000   0.0000   0.0000
    214    0.002551214615241    0.0  915.65    -136.925687277519    -136.925687277519    -136.821298625314    -136.818747410699   0.0000   0.0000   0.0000   0.0000
    215    0.002568376253963    0.0  919.13    -136.926100118151    -136.926100118151    -136.821314591538    -136.818746215284   0.0000   0.0000   0.0000   0.0000
    216    0.002587028589597    0.0  923.44    -136.926609153332    -136.926609153332    -136.821332715800    -136.818745687210   0.0000   0.0000   0.0000   0.0000
    217    0.002595584546725    0.0  928.70    -136.927217447424    -136.927217447424    -136.821340335494    -136.818744750948   0.0000   0.0000   0.0000   0.0000
    218    0.002596032835349    0.0  934.95    -136.927929663422    -136.927929663422    -136.821340251158    -136.818744218323   0.0000   0.0000   0.0000   0.0000
    219    0.002601377691286    0.0  942.08    -136.928748090595    -136.928748090595    -136.821345921322    -136.818744543631   0.0000   0.0000   0.0000   0.0000
    220    0.002618910402334    0.0  950.01    -136.929669341053    -136.929669341053    -136.821363503571    -136.818744593169   0.0000   0.0000   0.0000   0.0000

   writing restart file (with schema): ./h2o_51.save/
     restart      :      0.23s CPU      0.76s WALL (      12 calls)
    221    0.002644781800219    0.0  958.72    -136.930689033440    -136.930689033440    -136.821389765608    -136.818744983808   0.0000   0.0000   0.0000   0.0000
    222    0.002670295951717    0.0  968.21    -136.931796957906    -136.931796957906    -136.821416285378    -136.818745989426   0.0000   0.0000   0.0000   0.0000
    223    0.002691553544703    0.0  978.35    -136.932976005141    -136.932976005141    -136.821438776750    -136.818747223205   0.0000   0.0000   0.0000   0.0000
    224    0.002711510141976    0.0  988.95    -136.934206397614    -136.934206397614    -136.821460529091    -136.818749018949   0.0000   0.0000   0.0000   0.0000
    225    0.002732922787909    0.0  999.78    -136.935463827944    -136.935463827944    -136.821484227897    -136.818751305109   0.0000   0.0000   0.0000   0.0000
    226    0.002756828299630    0.0 1010.56    -136.936718842258    -136.936718842258    -136.821509904069    -136.818753075769   0.0000   0.0000   0.0000   0.0000
    227    0.002785806162793    0.0 1021.01    -136.937941701990    -136.937941701990    -136.821541321858    -136.818755515695   0.0000   0.0000   0.0000   0.0000
    228    0.002819459912959    0.0 1030.82    -136.939096518242    -136.939096518242    -136.821578004160    -136.818758544247   0.0000   0.0000   0.0000   0.0000
    229    0.002852547508839    0.0 1039.68    -136.940143085249    -136.940143085249    -136.821614005710    -136.818761458201   0.0000   0.0000   0.0000   0.0000
    230    0.002879847676518    0.0 1047.29    -136.941041074130    -136.941041074130    -136.821644889089    -136.818765041413   0.0000   0.0000   0.0000   0.0000

   writing restart file (with schema): ./h2o_51.save/
     restart      :      0.25s CPU      0.84s WALL (      13 calls)
    231    0.002900142253243    0.0 1053.26    -136.941745277202    -136.941745277202    -136.821668427786    -136.818768285533   0.0000   0.0000   0.0000   0.0000
    232    0.002917408024697    0.0 1057.17    -136.942211387590    -136.942211387590    -136.821689000765    -136.818771592740   0.0000   0.0000   0.0000   0.0000
    233    0.002933476692815    0.0 1058.60    -136.942395059916    -136.942395059916    -136.821708971660    -136.818775494967   0.0000   0.0000   0.0000   0.0000
    234    0.002943758224094    0.0 1057.21    -136.942249934467    -136.942249934467    -136.821722670480    -136.818778912256   0.0000   0.0000   0.0000   0.0000
    235    0.002944646666534    0.0 1052.66    -136.941735240127    -136.941735240127    -136.821726332796    -136.818781686130   0.0000   0.0000   0.0000   0.0000
    236    0.002936610403663    0.0 1044.67    -136.940818531441    -136.940818531441    -136.821720725962    -136.818784115558   0.0000   0.0000   0.0000   0.0000
    237    0.002919400523062    0.0 1033.04    -136.939476464272    -136.939476464272    -136.821704822763    -136.818785422240   0.0000   0.0000   0.0000   0.0000
    238    0.002891319975332    0.0 1017.72    -136.937702221586    -136.937702221586    -136.821676746461    -136.818785426486   0.0000   0.0000   0.0000   0.0000
    239    0.002852514072513    0.0  998.83    -136.935508658229    -136.935508658229    -136.821636845176    -136.818784331104   0.0000   0.0000   0.0000   0.0000
    240    0.002806813072503    0.0  976.63    -136.932928932574    -136.932928932574    -136.821588074025    -136.818781260953   0.0000   0.0000   0.0000   0.0000

   writing restart file (with schema): ./h2o_51.save/
     restart      :      0.27s CPU      0.92s WALL (      14 calls)
    241    0.002758024256363    0.0  951.61    -136.930022698723    -136.930022698723    -136.821534659732    -136.818776635476   0.0000   0.0000   0.0000   0.0000
    242    0.002702861988764    0.0  924.53    -136.926874358346    -136.926874358346    -136.821473078664    -136.818770216675   0.0000   0.0000   0.0000   0.0000
    243    0.002634840346471    0.0  896.41    -136.923592910370    -136.923592910370    -136.821397008874    -136.818762168527   0.0000   0.0000   0.0000   0.0000
    244    0.002555210718168    0.0  868.38    -136.920308691065    -136.920308691065    -136.821308435501    -136.818753224783   0.0000   0.0000   0.0000   0.0000
    245    0.002475693166196    0.0  841.61    -136.917166609410    -136.917166609410    -136.821219118421    -136.818743425255   0.0000   0.0000   0.0000   0.0000
    246    0.002408942931106    0.0  817.32    -136.914321703612    -136.914321703612    -136.821142849768    -136.818733906837   0.0000   0.0000   0.0000   0.0000
    247    0.002356826322750    0.0  796.85    -136.911927176789    -136.911927176789    -136.821081552366    -136.818724726044   0.0000   0.0000   0.0000   0.0000
    248    0.002313545015298    0.0  781.52    -136.910127315770    -136.910127315770    -136.821030063152    -136.818716518137   0.0000   0.0000   0.0000   0.0000
    249    0.002277559637949    0.0  772.43    -136.909048425692    -136.909048425692    -136.820987703588    -136.818710143950   0.0000   0.0000   0.0000   0.0000
    250    0.002256668289892    0.0  770.38    -136.908789367299    -136.908789367299    -136.820962419232    -136.818705750942   0.0000   0.0000   0.0000   0.0000

   writing restart file (with schema): ./h2o_51.save/
     restart      :      0.28s CPU      1.05s WALL (      15 calls)
    251    0.002261376527206    0.0  775.86    -136.909416698995    -136.909416698995    -136.820965150549    -136.818703774022   0.0000   0.0000   0.0000   0.0000
    252    0.002293097615557    0.0  789.10    -136.910959015843    -136.910959015843    -136.820997556185    -136.818704458569   0.0000   0.0000   0.0000   0.0000
    253    0.002342215267858    0.0  810.09    -136.913404086321    -136.913404086321    -136.821049917626    -136.818707702358   0.0000   0.0000   0.0000   0.0000
    254    0.002400165934260    0.0  838.45    -136.916700521803    -136.916700521803    -136.821113146776    -136.818712980841   0.0000   0.0000   0.0000   0.0000
    255    0.002469810086983    0.0  873.40    -136.920762101519    -136.920762101519    -136.821190182036    -136.818720371949   0.0000   0.0000   0.0000   0.0000
    256    0.002559733063648    0.0  913.83    -136.925469810593    -136.925469810593    -136.821288722416    -136.818728989352   0.0000   0.0000   0.0000   0.0000
    257    0.002670653730118    0.0  958.48    -136.930681145861    -136.930681145861    -136.821409367420    -136.818738713690   0.0000   0.0000   0.0000   0.0000
    258    0.002789562931336    0.0 1006.08    -136.936237029558    -136.936237029558    -136.821538980542    -136.818749417610   0.0000   0.0000   0.0000   0.0000
    259    0.002901346616086    0.0 1055.28    -136.941968593752    -136.941968593752    -136.821661198475    -136.818759851859   0.0000   0.0000   0.0000   0.0000
    260    0.003004051151045    0.0 1104.64    -136.947708206299    -136.947708206299    -136.821773973358    -136.818769922207   0.0000   0.0000   0.0000   0.0000

   writing restart file (with schema): ./h2o_51.save/
     restart      :      0.30s CPU      1.11s WALL (      16 calls)
    261    0.003105225936804    0.0 1152.66    -136.953293343489    -136.953293343489    -136.821884087968    -136.818778862031   0.0000   0.0000   0.0000   0.0000
    262    0.003207109710351    0.0 1198.02    -136.958574202714    -136.958574202714    -136.821993735026    -136.818786625315   0.0000   0.0000   0.0000   0.0000
    263    0.003300737340739    0.0 1239.63    -136.963418306692    -136.963418306692    -136.822093855036    -136.818793117696   0.0000   0.0000   0.0000   0.0000
    264    0.003375640580692    0.0 1276.61    -136.967714167169    -136.967714167169    -136.822173784434    -136.818798143853   0.0000   0.0000   0.0000   0.0000
    265    0.003429862209478    0.0 1308.20    -136.971373797042    -136.971373797042    -136.822231653153    -136.818801790943   0.0000   0.0000   0.0000   0.0000
    266    0.003467143640336    0.0 1333.81    -136.974332516356    -136.974332516356    -136.822270934596    -136.818803790956   0.0000   0.0000   0.0000   0.0000
    267    0.003489454450126    0.0 1353.06    -136.976549735991    -136.976549735991    -136.822293941552    -136.818804487102   0.0000   0.0000   0.0000   0.0000
    268    0.003496984073210    0.0 1365.78    -136.978006834919    -136.978006834919    -136.822300519290    -136.818803535217   0.0000   0.0000   0.0000   0.0000
    269    0.003492836529401    0.0 1371.99    -136.978708201680    -136.978708201680    -136.822294563111    -136.818801726582   0.0000   0.0000   0.0000   0.0000
    270    0.003479586283455    0.0 1371.85    -136.978676045914    -136.978676045914    -136.822278535640    -136.818798949357   0.0000   0.0000   0.0000   0.0000

   writing restart file (with schema): ./h2o_51.save/
     restart      :      0.32s CPU      1.14s WALL (      17 calls)
    271    0.003453914632470    0.0 1365.73    -136.977949454391    -136.977949454391    -136.822248974258    -136.818795059626   0.0000   0.0000   0.0000   0.0000
    272    0.003409100478936    0.0 1354.18    -136.976582935704    -136.976582935704    -136.822199872163    -136.818790771684   0.0000   0.0000   0.0000   0.0000
    273    0.003344147232581    0.0 1337.75    -136.974640658934    -136.974640658934    -136.822129808697    -136.818785661465   0.0000   0.0000   0.0000   0.0000
    274    0.003268945249991    0.0 1317.03    -136.972197700038    -136.972197700038    -136.822049369087    -136.818780423837   0.0000   0.0000   0.0000   0.0000
    275    0.003194460461472    0.0 1292.63    -136.969335894966    -136.969335894966    -136.821969487525    -136.818775027063   0.0000   0.0000   0.0000   0.0000
    276    0.003121456021420    0.0 1265.30    -136.966142248479    -136.966142248479    -136.821890889590    -136.818769433569   0.0000   0.0000   0.0000   0.0000
    277    0.003042788055504    0.0 1235.92    -136.962707383233    -136.962707383233    -136.821806386192    -136.818763598136   0.0000   0.0000   0.0000   0.0000
    278    0.002955139702823    0.0 1205.31    -136.959124592951    -136.959124592951    -136.821712749160    -136.818757609457   0.0000   0.0000   0.0000   0.0000
    279    0.002864280430677    0.0 1174.27    -136.955489024938    -136.955489024938    -136.821616155026    -136.818751874596   0.0000   0.0000   0.0000   0.0000
    280    0.002778175737387    0.0 1143.55    -136.951895433198    -136.951895433198    -136.821524310874    -136.818746135136   0.0000   0.0000   0.0000   0.0000

   writing restart file (with schema): ./h2o_51.save/
     restart      :      0.33s CPU      1.20s WALL (      18 calls)
    281    0.002699227155293    0.0 1113.97    -136.948438601528    -136.948438601528    -136.821439832136    -136.818740604981   0.0000   0.0000   0.0000   0.0000
    282    0.002624979732831    0.0 1086.36    -136.945211058448    -136.945211058448    -136.821360134532    -136.818735154799   0.0000   0.0000   0.0000   0.0000
    283    0.002554867166619    0.0 1061.50    -136.942302177964    -136.942302177964    -136.821285157147    -136.818730289980   0.0000   0.0000   0.0000   0.0000
    284    0.002493104872930    0.0 1040.09    -136.939794670240    -136.939794670240    -136.821218740501    -136.818725635628   0.0000   0.0000   0.0000   0.0000
    285    0.002445649293494    0.0 1022.74    -136.937765475136    -136.937765475136    -136.821167222412    -136.818721573119   0.0000   0.0000   0.0000   0.0000
    286    0.002413946665678    0.0 1010.04    -136.936281888535    -136.936281888535    -136.821132434822    -136.818718488156   0.0000   0.0000   0.0000   0.0000
    287    0.002394802822549    0.0 1002.48    -136.935398082190    -136.935398082190    -136.821110636933    -136.818715834110   0.0000   0.0000   0.0000   0.0000
    288    0.002385886418722    0.0 1000.45    -136.935156792866    -136.935156792866    -136.821100641894    -136.818714755475   0.0000   0.0000   0.0000   0.0000
    289    0.002386981532511    0.0 1004.17    -136.935582427310    -136.935582427310    -136.821101578214    -136.818714596681   0.0000   0.0000   0.0000   0.0000
    290    0.002400902798786    0.0 1013.71    -136.936684121681    -136.936684121681    -136.821116105318    -136.818715202520   0.0000   0.0000   0.0000   0.0000

   writing restart file (with schema): ./h2o_51.save/
     restart      :      0.35s CPU      1.29s WALL (      19 calls)
    291    0.002431654929698    0.0 1028.97    -136.938456495497    -136.938456495497    -136.821148642330    -136.818716987401   0.0000   0.0000   0.0000   0.0000
    292    0.002480302728743    0.0 1049.75    -136.940877109455    -136.940877109455    -136.821199714516    -136.818719411787   0.0000   0.0000   0.0000   0.0000
    293    0.002544470258878    0.0 1075.77    -136.943910328587    -136.943910328587    -136.821267065090    -136.818722594831   0.0000   0.0000   0.0000   0.0000
    294    0.002619110224939    0.0 1106.64    -136.947508135161    -136.947508135161    -136.821345883863    -136.818726773638   0.0000   0.0000   0.0000   0.0000
    295    0.002699273671493    0.0 1141.86    -136.951609512685    -136.951609512685    -136.821430954085    -136.818731680414   0.0000   0.0000   0.0000   0.0000
    296    0.002785337293360    0.0 1180.83    -136.956142908546    -136.956142908546    -136.821522182588    -136.818736845294   0.0000   0.0000   0.0000   0.0000
    297    0.002882107714138    0.0 1222.78    -136.961028737354    -136.961028737354    -136.821625227658    -136.818743119944   0.0000   0.0000   0.0000   0.0000
    298    0.002990702200210    0.0 1266.91    -136.966174847845    -136.966174847845    -136.821740501202    -136.818749799002   0.0000   0.0000   0.0000   0.0000
    299    0.003106681600311    0.0 1312.37    -136.971480785635    -136.971480785635    -136.821863596483    -136.818756914883   0.0000   0.0000   0.0000   0.0000

 * Physical Quantities at step:   300

   from rhoofr: total integrated electronic density
   in g-space =     64.000000   in r-space =    64.000000


                total energy =     -136.97683758063 Hartree a.u.
              kinetic energy =       97.79485 Hartree a.u.
        electrostatic energy =     -185.44465 Hartree a.u.
                         esr =        0.01195 Hartree a.u.
                       eself =      242.55691 Hartree a.u.
      pseudopotential energy =       -9.35437 Hartree a.u.
  n-l pseudopotential energy =       -6.25599 Hartree a.u.
 exchange-correlation energy =      -33.71669 Hartree a.u.
           average potential =        0.00000 Hartree a.u.



   Eigenvalues (eV), kp =   1 , spin =  1

  -24.06  -23.49  -23.19  -22.72  -22.57  -22.30  -21.80  -21.31  -11.35  -11.29
  -11.07  -10.69  -10.56  -10.35   -9.92   -9.16   -8.17   -7.85   -7.58   -7.22
   -6.98   -6.91   -6.54   -5.83   -5.39   -5.22   -5.00   -4.85   -4.70   -4.64
   -4.45   -4.10


   CELL_PARAMETERS
   13.00000000    0.00000000    0.00000000
    0.00000000   13.00000000    0.00000000
    0.00000000    0.00000000   13.00000000

   System Density [g/cm^3] :              0.7351364820


   System Volume [A.U.^3] :           2197.0000000000


   Center of mass square displacement (a.u.):   0.000000

   ATOMIC_POSITIONS
   O       0.57011618016587E+01     0.35780363465342E+01     0.36212548406528E+01
   H       0.49724590753730E+01     0.50127410553291E+01     0.28580329148215E+01
   H       0.46172085880535E+01     0.33851352407652E+01     0.49466487908038E+01
   O       0.36260063924818E+01    -0.48365413640273E+01     0.18552016790873E+01
   H       0.53803273694114E+01    -0.41996487494798E+01     0.22678689090624E+01
   H       0.23909808704431E+01    -0.46647330280161E+01     0.33081285381130E+01
   O      -0.48839888116887E+01    -0.31570620002554E+01     0.30645888914563E+01
   H      -0.35381024630474E+01    -0.45894791861733E+01     0.26346972671115E+01
   H      -0.45459740756284E+01    -0.31487273392744E+01     0.51380591492323E+01
   O      -0.25579446715127E+01     0.53640788787384E+01     0.30525253779105E+01
   H      -0.41166472421920E+01     0.44525414107127E+01     0.34333212953048E+01
   H      -0.13415860207884E+01     0.54950927891131E+01     0.46379685696955E+01
   O       0.29313050389045E+01    -0.45563605249008E+01    -0.32002180832740E+01
   H       0.20784112090108E+01    -0.45515130119560E+01    -0.14961198955928E+01
   H       0.46054178377260E+01    -0.39701740930590E+01    -0.33238079327782E+01
   O      -0.48523988843197E+01    -0.40278507331879E+01    -0.44187185862409E+01
   H      -0.33789174353801E+01    -0.31739081042254E+01    -0.33222366890638E+01
   H      -0.45009911751651E+01    -0.57095775028203E+01    -0.39750140717755E+01
   O      -0.41039934314572E+01     0.40695499078515E+01    -0.31093981262553E+01
   H      -0.41818482736352E+01     0.38401815120224E+01    -0.11223590182093E+01
   H      -0.59398330055249E+01     0.34306924988335E+01    -0.34949408876077E+01
   O       0.41976857939520E+01     0.35937379921278E+01    -0.40166708263156E+01
   H       0.28171768706521E+01     0.27488758810783E+01    -0.29473511017535E+01
   H       0.37638390451159E+01     0.52045444349964E+01    -0.38484618591666E+01

   ATOMIC_VELOCITIES
   O       0.22276317818665E-03    -0.87709087632920E-04    -0.14965394807726E-03
   H      -0.33567744520228E-03    -0.15692722581294E-02    -0.84725365341631E-03
   H       0.79101777657360E-03    -0.17797320616248E-02     0.40691092923826E-03
   O       0.32243493738970E-03    -0.56141555074313E-04    -0.57093113033800E-03
   H      -0.50873121954199E-02    -0.15682550053486E-02     0.10809241965237E-02
   H       0.27148678791418E-02     0.47445855557564E-03    -0.22123314769951E-02
   O      -0.34106447268321E-03     0.21121554469646E-03     0.62238872363746E-04
   H      -0.54406615036944E-03     0.85136995518926E-03    -0.34070524798062E-03
   H      -0.30386529563837E-03    -0.83055046932479E-03    -0.54844399546379E-03
   O       0.52746222416799E-03     0.29097104261130E-03    -0.11215306591695E-03
   H       0.96976651275051E-03    -0.28587336744892E-03     0.18889515963372E-03
   H      -0.10114150918136E-02    -0.91835644055180E-03    -0.17577272199212E-02
   O      -0.31975583075198E-03    -0.42864893109016E-03     0.42482566409733E-03
   H      -0.20370427584781E-02     0.28412769185037E-02     0.23681137768440E-02
   H       0.19603976252445E-02     0.20734497745360E-02    -0.71033095154358E-03
   O      -0.74293789882440E-04     0.13251234543374E-03    -0.85873709277612E-04
   H      -0.17565413656604E-03     0.47240476933330E-06    -0.13050135412864E-02
   H      -0.52955085937326E-03    -0.37243852024473E-02    -0.11848412374523E-02
   O      -0.15534677723201E-03     0.30127690921918E-03     0.42588072082710E-03
   H       0.23633969026249E-03    -0.39018843147285E-03    -0.18882592733784E-02
   H       0.17242655329175E-02     0.18382832094328E-02     0.31763175054162E-02
   O      -0.29092779337099E-03    -0.17464039802706E-03     0.17290025810541E-03
   H       0.22712712498751E-02     0.32005990291462E-04    -0.16297967319966E-02
   H       0.10826753135034E-02    -0.42395726103184E-04     0.25487758241419E-02



   Partial temperatures (for each ionic specie) 
   Species  Temp (K)   Mean Square Displacement (a.u.)
        1   7.64E+02     7.8068E-01
        2   1.66E+03     1.6326E+00

  nfi     ekinc              temph  tempp     etot                 enthal               econs                econt              vnhh    xnhh0   vnhp    xnhp0
    300    0.003223266765160    0.0 1358.26    -136.976837580629    -136.976837580629    -136.821988456710    -136.818765189945   0.0000   0.0000   0.0000   0.0000

   writing restart file (with schema): ./h2o_51.save/
     restart      :      0.38s CPU      1.37s WALL (      20 calls)
    301    0.003335119641880    0.0 1403.57    -136.982123686388    -136.982123686388    -136.822108905177    -136.818773785535   0.0000   0.0000   0.0000   0.0000
    302    0.003441385033242    0.0 1447.18    -136.987210725278    -136.987210725278    -136.822224294821    -136.818782909788   0.0000   0.0000   0.0000   0.0000
    303    0.003542854381994    0.0 1487.91    -136.991964918425    -136.991964918425    -136.822335055763    -136.818792201381   0.0000   0.0000   0.0000   0.0000
    304    0.003639576346114    0.0 1524.58    -136.996251171778    -136.996251171778    -136.822440857924    -136.818801281577   0.0000   0.0000   0.0000   0.0000
    305    0.003731392977544    0.0 1556.04    -136.999938084404    -136.999938084404    -136.822541045991    -136.818809653013   0.0000   0.0000   0.0000   0.0000
    306    0.003816601646302    0.0 1581.25    -137.002904269931    -137.002904269931    -136.822633687589    -136.818817085942   0.0000   0.0000   0.0000   0.0000
    307    0.003888721925395    0.0 1599.33    -137.005044448264    -137.005044448264    -136.822711992965    -136.818823271039   0.0000   0.0000   0.0000   0.0000
    308    0.003938212877091    0.0 1609.66    -137.006276089150    -137.006276089150    -136.822765969683    -136.818827756806   0.0000   0.0000   0.0000   0.0000
    309    0.003960204788330    0.0 1611.81    -137.006545296626    -137.006545296626    -136.822790349106    -136.818830144318   0.0000   0.0000   0.0000   0.0000
    310    0.003959966958204    0.0 1605.56    -137.005831527910    -137.005831527910    -136.822789402303    -136.818829435345   0.0000   0.0000   0.0000   0.0000

   writing restart file (with schema): ./h2o_51.save/
     restart      :      0.39s CPU      1.43s WALL (      21 calls)
    311    0.003947109773718    0.0 1590.99    -137.004154244163    -137.004154244163    -136.822773556431    -136.818826446657   0.0000   0.0000   0.0000   0.0000
    312    0.003922268598814    0.0 1568.58    -137.001569319209    -137.001569319209    -136.822743295065    -136.818821026466   0.0000   0.0000   0.0000   0.0000
    313    0.003877255162808    0.0 1539.22    -136.998169347119    -136.998169347119    -136.822690692617    -136.818813437454   0.0000   0.0000   0.0000   0.0000
    314    0.003807654857798    0.0 1504.03    -136.994079401934    -136.994079401934    -136.822612290572    -136.818804635715   0.0000   0.0000   0.0000   0.0000
    315    0.003721442782453    0.0 1464.25    -136.989447476323    -136.989447476323    -136.822515570719    -136.818794127936   0.0000   0.0000   0.0000   0.0000
    316    0.003634830043166    0.0 1421.20    -136.984442484411    -136.984442484411    -136.822417862014    -136.818783031971   0.0000   0.0000   0.0000   0.0000
    317    0.003556948646972    0.0 1376.38    -136.979243400963    -136.979243400963    -136.822328979027    -136.818772030380   0.0000   0.0000   0.0000   0.0000
    318    0.003483852297791    0.0 1331.38    -136.974029310296    -136.974029310296    -136.822245282119    -136.818761429821   0.0000   0.0000   0.0000   0.0000
    319    0.003408189521885    0.0 1287.76    -136.968971689541    -136.968971689541    -136.822159843107    -136.818751653585   0.0000   0.0000   0.0000   0.0000
    320    0.003329236387326    0.0 1246.91    -136.964226662946    -136.964226662946    -136.822072385482    -136.818743149095   0.0000   0.0000   0.0000   0.0000

   writing restart file (with schema): ./h2o_51.save/
     restart      :      0.41s CPU      1.46s WALL (      22 calls)
    321    0.003253446105108    0.0 1209.94    -136.959929242327    -136.959929242327    -136.821989624092    -136.818736177987   0.0000   0.0000   0.0000   0.0000
    322    0.003189222956759    0.0 1177.75    -136.956190357839    -136.956190357839    -136.821920285054    -136.818731062097   0.0000   0.0000   0.0000   0.0000
    323    0.003142023066501    0.0 1151.03    -136.953093294047    -136.953093294047    -136.821870130554    -136.818728107488   0.0000   0.0000   0.0000   0.0000
    324    0.003112992245815    0.0 1130.22    -136.950690272027    -136.950690272027    -136.821839632962    -136.818726640717   0.0000   0.0000   0.0000   0.0000
    325    0.003099778523083    0.0 1115.54    -136.949004370983    -136.949004370983    -136.821826841427    -136.818727062904   0.0000   0.0000   0.0000   0.0000
    326    0.003097477944727    0.0 1106.98    -136.948027795281    -136.948027795281    -136.821826226723    -136.818728748779   0.0000   0.0000   0.0000   0.0000
    327    0.003103414867540    0.0 1104.27    -136.947727851155    -136.947727851155    -136.821835357561    -136.818731942693   0.0000   0.0000   0.0000   0.0000
    328    0.003118383515691    0.0 1106.91    -136.948049330950    -136.948049330950    -136.821855334423    -136.818736950907   0.0000   0.0000   0.0000   0.0000
    329    0.003143384505343    0.0 1114.25    -136.948916298241    -136.948916298241    -136.821885650315    -136.818742265810   0.0000   0.0000   0.0000   0.0000
    330    0.003177849246520    0.0 1125.53    -136.950242366201    -136.950242366201    -136.821925762988    -136.818747913741   0.0000   0.0000   0.0000   0.0000

   writing restart file (with schema): ./h2o_51.save/
     restart      :      0.43s CPU      1.60s WALL (      23 calls)
    331    0.003217666688724    0.0 1139.96    -136.951932144463    -136.951932144463    -136.821971044551    -136.818753377862   0.0000   0.0000   0.0000   0.0000
    332    0.003257712353435    0.0 1156.71    -136.953886865645    -136.953886865645    -136.822016013666    -136.818758301312   0.0000   0.0000   0.0000   0.0000
    333    0.003295410892437    0.0 1174.97    -136.956011435195    -136.956011435195    -136.822058506830    -136.818763095938   0.0000   0.0000   0.0000   0.0000
    334    0.003329500304967    0.0 1193.97    -136.958215864934    -136.958215864934    -136.822097243363    -136.818767743058   0.0000   0.0000   0.0000   0.0000
    335    0.003359336220152    0.0 1212.98    -136.960416522035    -136.960416522035    -136.822130955030    -136.818771618810   0.0000   0.0000   0.0000   0.0000
    336    0.003386450938180    0.0 1231.33    -136.962538956355    -136.962538956355    -136.822161147126    -136.818774696188   0.0000   0.0000   0.0000   0.0000
    337    0.003412785951260    0.0 1248.43    -136.964517118495    -136.964517118495    -136.822190054794    -136.818777268843   0.0000   0.0000   0.0000   0.0000
    338    0.003437286230516    0.0 1263.77    -136.966292481947    -136.966292481947    -136.822216273591    -136.818778987360   0.0000   0.0000   0.0000   0.0000
    339    0.003455187059523    0.0 1276.97    -136.967816658719    -136.967816658719    -136.822235903647    -136.818780716587   0.0000   0.0000   0.0000   0.0000
    340    0.003459987006266    0.0 1287.70    -136.969046511860    -136.969046511860    -136.822242038674    -136.818782051668   0.0000   0.0000   0.0000   0.0000

   writing restart file (with schema): ./h2o_51.save/
     restart      :      0.44s CPU      1.69s WALL (      24 calls)
    341    0.003450441986935    0.0 1295.66    -136.969945585453    -136.969945585453    -136.822233114785    -136.818782672798   0.0000   0.0000   0.0000   0.0000
    342    0.003432725966600    0.0 1300.55    -136.970485493701    -136.970485493701    -136.822215971934    -136.818783245967   0.0000   0.0000   0.0000   0.0000
    343    0.003412996538059    0.0 1302.10    -136.970642646367    -136.970642646367    -136.822196248621    -136.818783252083   0.0000   0.0000   0.0000   0.0000
    344    0.003391719715972    0.0 1300.18    -136.970402082658    -136.970402082658    -136.822174431390    -136.818782711674   0.0000   0.0000   0.0000   0.0000
    345    0.003363854152485    0.0 1294.79    -136.969758109183    -136.969758109183    -136.822145593189    -136.818781739037   0.0000   0.0000   0.0000   0.0000
    346    0.003324034044561    0.0 1285.98    -136.968713189683    -136.968713189683    -136.822104209264    -136.818780175220   0.0000   0.0000   0.0000   0.0000
    347    0.003272176954532    0.0 1273.88    -136.967278929888    -136.967278929888    -136.822050123664    -136.818777946710   0.0000   0.0000   0.0000   0.0000
    348    0.003212635718549    0.0 1258.61    -136.965476763993    -136.965476763993    -136.821988104202    -136.818775468484   0.0000   0.0000   0.0000   0.0000
    349    0.003149038026372    0.0 1240.42    -136.963335674214    -136.963335674214    -136.821921559984    -136.818772521957   0.0000   0.0000   0.0000   0.0000
    350    0.003082947572980    0.0 1219.60    -136.960892676062    -136.960892676062    -136.821852029680    -136.818769082107   0.0000   0.0000   0.0000   0.0000

   writing restart file (with schema): ./h2o_51.save/
     restart      :      0.46s CPU      1.76s WALL (      25 calls)
    351    0.003014749029068    0.0 1196.53    -136.958191332819    -136.958191332819    -136.821780364199    -136.818765615170   0.0000   0.0000   0.0000   0.0000
    352    0.002944138185577    0.0 1171.63    -136.955278069933    -136.955278069933    -136.821705923706    -136.818761785521   0.0000   0.0000   0.0000   0.0000
    353    0.002871125441750    0.0 1145.33    -136.952203168318    -136.952203168318    -136.821629461128    -136.818758335686   0.0000   0.0000   0.0000   0.0000
    354    0.002796006742548    0.0 1118.06    -136.949016171952    -136.949016171952    -136.821551012450    -136.818755005707   0.0000   0.0000   0.0000   0.0000
    355    0.002721239840484    0.0 1090.24    -136.945766175291    -136.945766175291    -136.821472943978    -136.818751704138   0.0000   0.0000   0.0000   0.0000
    356    0.002650334662432    0.0 1062.25    -136.942500899195    -136.942500899195    -136.821399358748    -136.818749024086   0.0000   0.0000   0.0000   0.0000
    357    0.002583424096241    0.0 1034.45    -136.939262519340    -136.939262519340    -136.821329790686    -136.818746366589   0.0000   0.0000   0.0000   0.0000
    358    0.002518227695268    0.0 1007.22    -136.936090982469    -136.936090982469    -136.821262130245    -136.818743902550   0.0000   0.0000   0.0000   0.0000
    359    0.002453642459312    0.0  980.90    -136.933023431204    -136.933023431204    -136.821195567783    -136.818741925324   0.0000   0.0000   0.0000   0.0000
    360    0.002391633626902    0.0  955.75    -136.930092217430    -136.930092217430    -136.821131860611    -136.818740226984   0.0000   0.0000   0.0000   0.0000

   writing restart file (with schema): ./h2o_51.save/
     restart      :      0.48s CPU      1.84s WALL (      26 calls)
    361    0.002336488085282    0.0  931.99    -136.927326692426    -136.927326692426    -136.821074926205    -136.818738438120   0.0000   0.0000   0.0000   0.0000
    362    0.002290580624723    0.0  909.86    -136.924755952217    -136.924755952217    -136.821027611753    -136.818737031128   0.0000   0.0000   0.0000   0.0000
    363    0.002251139875561    0.0  889.61    -136.922406683003    -136.922406683003    -136.820986805813    -136.818735665938   0.0000   0.0000   0.0000   0.0000
    364    0.002214821236822    0.0  871.51    -136.920305409486    -136.920305409486    -136.820948835058    -136.818734013821   0.0000   0.0000   0.0000   0.0000
    365    0.002182429032428    0.0  855.80    -136.918480288140    -136.918480288140    -136.820915042511    -136.818732613479   0.0000   0.0000   0.0000   0.0000
    366    0.002156817385041    0.0  842.68    -136.916958217027    -136.916958217027    -136.820887805189    -136.818730987804   0.0000   0.0000   0.0000   0.0000
    367    0.002139779780282    0.0  832.40    -136.915767570157    -136.915767570157    -136.820869217214    -136.818729437434   0.0000   0.0000   0.0000   0.0000
    368    0.002130572206340    0.0  825.21    -136.914936620426    -136.914936620426    -136.820858622507    -136.818728050300   0.0000   0.0000   0.0000   0.0000
    369    0.002127822240330    0.0  821.34    -136.914491906884    -136.914491906884    -136.820854610729    -136.818726788489   0.0000   0.0000   0.0000   0.0000
    370    0.002132063095575    0.0  821.01    -136.914457326260    -136.914457326260    -136.820857723148    -136.818725660052   0.0000   0.0000   0.0000   0.0000

   writing restart file (with schema): ./h2o_51.save/
     restart      :      0.50s CPU      1.87s WALL (      27 calls)
    371    0.002145140342293    0.0  824.38    -136.914853179127    -136.914853179127    -136.820869940135    -136.818724799793   0.0000   0.0000   0.0000   0.0000
    372    0.002168131213305    0.0  831.56    -136.915694656045    -136.915694656045    -136.820892645218    -136.818724514004   0.0000   0.0000   0.0000   0.0000
    373    0.002201323375048    0.0  842.63    -136.916989875717    -136.916989875717    -136.820925941055    -136.818724617680   0.0000   0.0000   0.0000   0.0000
    374    0.002245169357122    0.0  857.59    -136.918740107227    -136.918740107227    -136.820970713887    -136.818725544530   0.0000   0.0000   0.0000   0.0000
    375    0.002298902573885    0.0  876.37    -136.920936740825    -136.920936740825    -136.821025792821    -136.818726890247   0.0000   0.0000   0.0000   0.0000
    376    0.002360528356117    0.0  898.85    -136.923562718835    -136.923562718835    -136.821089328014    -136.818728799658   0.0000   0.0000   0.0000   0.0000
    377    0.002428113625519    0.0  924.79    -136.926591149659    -136.926591149659    -136.821159695730    -136.818731582104   0.0000   0.0000   0.0000   0.0000
    378    0.002501545294355    0.0  953.88    -136.929983351241    -136.929983351241    -136.821236424143    -136.818734878848   0.0000   0.0000   0.0000   0.0000
    379    0.002582673335908    0.0  985.65    -136.933690876643    -136.933690876643    -136.821321696707    -136.818739023371   0.0000   0.0000   0.0000   0.0000
    380    0.002671466931141    0.0 1019.59    -136.937653883024    -136.937653883024    -136.821415361808    -136.818743894877   0.0000   0.0000   0.0000   0.0000

   writing restart file (with schema): ./h2o_51.save/
     restart      :      0.52s CPU      1.96s WALL (      28 calls)
    381    0.002764718090581    0.0 1055.10    -136.941801467533    -136.941801467533    -136.821514205188    -136.818749487097   0.0000   0.0000   0.0000   0.0000
    382    0.002859254729877    0.0 1091.50    -136.946051877327    -136.946051877327    -136.821614954975    -136.818755700245   0.0000   0.0000   0.0000   0.0000
    383    0.002954221615338    0.0 1127.99    -136.950313516906    -136.950313516906    -136.821716842613    -136.818762620998   0.0000   0.0000   0.0000   0.0000
    384    0.003048874889621    0.0 1163.69    -136.954485898972    -136.954485898972    -136.821818871046    -136.818769996157   0.0000   0.0000   0.0000   0.0000
    385    0.003140015218081    0.0 1197.71    -136.958463143068    -136.958463143068    -136.821917563635    -136.818777548417   0.0000   0.0000   0.0000   0.0000
    386    0.003222898521661    0.0 1229.15    -136.962137714437    -136.962137714437    -136.822007963826    -136.818785065304   0.0000   0.0000   0.0000   0.0000
    387    0.003294725267414    0.0 1257.12    -136.965404446558    -136.965404446558    -136.822086552655    -136.818791827387   0.0000   0.0000   0.0000   0.0000
    388    0.003355489633194    0.0 1280.77    -136.968167556368    -136.968167556368    -136.822153522868    -136.818798033235   0.0000   0.0000   0.0000   0.0000
    389    0.003404099485141    0.0 1299.38    -136.970343482194    -136.970343482194    -136.822206954522    -136.818802855037   0.0000   0.0000   0.0000   0.0000
    390    0.003438000375176    0.0 1312.44    -136.971869324558    -136.971869324558    -136.822243901615    -136.818805901240   0.0000   0.0000   0.0000   0.0000

   writing restart file (with schema): ./h2o_51.save/
     restart      :      0.53s CPU      2.05s WALL (      29 calls)
    391    0.003455349130700    0.0 1319.64    -136.972708377981    -136.972708377981    -136.822262609868    -136.818807260738   0.0000   0.0000   0.0000   0.0000
    392    0.003455739894317    0.0 1320.90    -136.972851994922    -136.972851994922    -136.822262170533    -136.818806430639   0.0000   0.0000   0.0000   0.0000
    393    0.003440109900672    0.0 1316.43    -136.972323798274    -136.972323798274    -136.822243649780    -136.818803539879   0.0000   0.0000   0.0000   0.0000
    394    0.003409597568474    0.0 1306.70    -136.971179152493    -136.971179152493    -136.822208250740    -136.818798653172   0.0000   0.0000   0.0000   0.0000
    395    0.003365811369741    0.0 1292.44    -136.969503063044    -136.969503063044    -136.822157748537    -136.818791937168   0.0000   0.0000   0.0000   0.0000
    396    0.003311867044676    0.0 1274.61    -136.967407152132    -136.967407152132    -136.822095473615    -136.818783606570   0.0000   0.0000   0.0000   0.0000
    397    0.003250850741587    0.0 1254.33    -136.965025176887    -136.965025176887    -136.822025560692    -136.818774709950   0.0000   0.0000   0.0000   0.0000
    398    0.003183993857193    0.0 1232.87    -136.962502791180    -136.962502791180    -136.821949391238    -136.818765397381   0.0000   0.0000   0.0000   0.0000
    399    0.003114604946127    0.0 1211.53    -136.959990998875    -136.959990998875    -136.821870595142    -136.818755990196   0.0000   0.0000   0.0000   0.0000

 * Physical Quantities at step:   400

   from rhoofr: total integrated electronic density
   in g-space =     64.000000   in r-space =    64.000000


                total energy =     -136.95763801444 Hartree a.u.
              kinetic energy =       98.48814 Hartree a.u.
        electrostatic energy =     -185.66176 Hartree a.u.
                         esr =        0.01992 Hartree a.u.
                       eself =      242.55691 Hartree a.u.
      pseudopotential energy =       -9.49170 Hartree a.u.
  n-l pseudopotential energy =       -6.41087 Hartree a.u.
 exchange-correlation energy =      -33.88145 Hartree a.u.
           average potential =        0.00000 Hartree a.u.



   Eigenvalues (eV), kp =   1 , spin =  1

  -24.48  -23.81  -23.67  -23.26  -22.72  -22.51  -21.65  -21.12  -12.04  -11.48
  -11.22  -10.82  -10.69  -10.51   -9.74   -8.87   -8.31   -7.98   -7.67   -7.39
   -7.10   -6.72   -6.55   -6.30   -5.49   -5.40   -5.15   -4.78   -4.69   -4.58
   -4.00   -3.47


   CELL_PARAMETERS
   13.00000000    0.00000000    0.00000000
    0.00000000   13.00000000    0.00000000
    0.00000000    0.00000000   13.00000000

   System Density [g/cm^3] :              0.7351364820


   System Volume [A.U.^3] :           2197.0000000000


   Center of mass square displacement (a.u.):   0.000000

   ATOMIC_POSITIONS
   O       0.58344856102669E+01     0.34995567521314E+01     0.35298475463030E+01
   H       0.45485819102191E+01     0.45294572344434E+01     0.27417999863423E+01
   H       0.51553371606558E+01     0.28358819412839E+01     0.51671761559544E+01
   O       0.36787583495972E+01    -0.49141427089396E+01     0.15815114279008E+01
   H       0.57953357516444E+01    -0.39598261740346E+01     0.23811132411651E+01
   H       0.25246483797428E+01    -0.45583164643617E+01     0.27125264021248E+01
   O      -0.50443144385227E+01    -0.30358140568681E+01     0.31256843361940E+01
   H      -0.40395539498643E+01    -0.44846978245584E+01     0.24084187892406E+01
   H      -0.49708375009932E+01    -0.33640546676010E+01     0.51495501294535E+01
   O      -0.23050185964544E+01     0.54776485057658E+01     0.29675522442971E+01
   H      -0.39009541463570E+01     0.45994988562685E+01     0.34140132216940E+01
   H      -0.13228464336359E+01     0.50871291679200E+01     0.42473953650486E+01
   O       0.27900595126652E+01    -0.47278754540403E+01    -0.29874893415503E+01
   H       0.25767691365317E+01    -0.36438664078369E+01    -0.12637952656805E+01
   H       0.44504114765268E+01    -0.37080830924573E+01    -0.34665797495560E+01
   O      -0.49069828519796E+01    -0.40572515487742E+01    -0.44908070532279E+01
   H      -0.34888713548775E+01    -0.32756351337238E+01    -0.39103540282266E+01
   H      -0.44326719936030E+01    -0.58185154007197E+01    -0.40629072779971E+01
   O      -0.41440492435322E+01     0.42285055937039E+01    -0.28809398274108E+01
   H      -0.33187453476043E+01     0.40608905759202E+01    -0.14250386302657E+01
   H      -0.60451019030697E+01     0.38071320066540E+01    -0.30098853615843E+01
   O       0.40772560765580E+01     0.35609102543261E+01    -0.39396963873194E+01
   H       0.32579354082906E+01     0.23593400506132E+01    -0.31532020515128E+01
   H       0.35249689053801E+01     0.50330230096751E+01    -0.31422008081561E+01

   ATOMIC_VELOCITIES
   O       0.42269044687901E-03    -0.20598313529644E-03    -0.28962048768376E-03
   H      -0.18720989430695E-02     0.66492209987057E-05     0.62030732500148E-03
   H       0.13430251998734E-03    -0.67919906235957E-03     0.16642312753764E-02
   O       0.30014133492955E-03    -0.36216841567860E-04    -0.24846203835464E-03
   H      -0.27191761467482E-06    -0.35903150886038E-03    -0.35576400073052E-02
   H      -0.13532397512026E-02    -0.22986690510656E-03    -0.14361670829428E-02
   O      -0.34882300223338E-03     0.11700370551272E-03     0.27680084313264E-03
   H      -0.19792215323772E-02     0.12799941067211E-02     0.15419107970219E-02
   H      -0.55146602764413E-03    -0.22617887799237E-04    -0.23847429707021E-02
   O       0.51944578876104E-03     0.12543969199826E-03    -0.50912802258279E-04
   H      -0.53020929497608E-03     0.95960205378821E-03    -0.11964471504656E-02
   H       0.38806509645936E-03     0.16652237808628E-03    -0.21547875583652E-02
   O      -0.31336217881516E-03    -0.17671528522969E-03     0.42051280777573E-03
   H       0.46070634634147E-03    -0.18305211016472E-02     0.10264678988973E-02
   H       0.16643142194982E-02    -0.29545060899284E-03    -0.23907366821915E-02
   O      -0.10967624160941E-03     0.19390852035247E-03    -0.26397506159084E-03
   H      -0.14786864437471E-02    -0.11277774739253E-02    -0.15486007909310E-02
   H       0.17037311730195E-02    -0.29633571820503E-02     0.17981711699517E-02
   O      -0.23450390932339E-03     0.26342071424926E-03     0.55493865902733E-03
   H       0.10414468485114E-02     0.13393700956255E-02    -0.22990460341493E-02
   H       0.34681892844441E-02     0.45537053744147E-03     0.59503438984511E-03
   O      -0.25218327205027E-03     0.21294699798578E-03     0.24932534388076E-03
   H       0.66822883316840E-03    -0.10811363457010E-02     0.13347957221055E-03
   H      -0.15054944137881E-02    -0.34574925605626E-02    -0.70780901270861E-03



   Partial temperatures (for each ionic specie) 
   Species  Temp (K)   Mean Square Displacement (a.u.)
        1   7.63E+02     1.1982E+00
        2   1.41E+03     2.2362E+00

[...]
   1040    0.002230253894875    0.0  947.51    -136.929010296606    -136.929010296606    -136.820989010993    -136.818758757098   0.0000   0.0000   0.0000   0.0000

   writing restart file (with schema): ./h2o_51.save/
     restart      :      1.70s CPU      7.14s WALL (      94 calls)
   1041    0.002243978684332    0.0  952.05    -136.929540007339    -136.929540007339    -136.821000944954    -136.818756966270   0.0000   0.0000   0.0000   0.0000
   1042    0.002262426534437    0.0  957.55    -136.930182866566    -136.930182866566    -136.821017469867    -136.818755043333   0.0000   0.0000   0.0000   0.0000
   1043    0.002287413002781    0.0  964.18    -136.930962749781    -136.930962749781    -136.821040867413    -136.818753454411   0.0000   0.0000   0.0000   0.0000
   1044    0.002318212034964    0.0  972.14    -136.931899713764    -136.931899713764    -136.821070446522    -136.818752234487   0.0000   0.0000   0.0000   0.0000
   1045    0.002353909850878    0.0  981.54    -136.933006754162    -136.933006754162    -136.821105654682    -136.818751744831   0.0000   0.0000   0.0000   0.0000
   1046    0.002394533115483    0.0  992.39    -136.934284789800    -136.934284789800    -136.821147114564    -136.818752581448   0.0000   0.0000   0.0000   0.0000
   1047    0.002439868708400    0.0 1004.54    -136.935717186062    -136.935717186062    -136.821194456167    -136.818754587458   0.0000   0.0000   0.0000   0.0000
   1048    0.002489320558758    0.0 1017.70    -136.937270021968    -136.937270021968    -136.821247111651    -136.818757791092   0.0000   0.0000   0.0000   0.0000
   1049    0.002541971786507    0.0 1031.43    -136.938892844732    -136.938892844732    -136.821304022232    -136.818762050445   0.0000   0.0000   0.0000   0.0000
   1050    0.002596577893580    0.0 1045.19    -136.940521000691    -136.940521000691    -136.821363575627    -136.818766997733   0.0000   0.0000   0.0000   0.0000

   writing restart file (with schema): ./h2o_51.save/
     restart      :      1.72s CPU      7.23s WALL (      95 calls)
   1051    0.002651292142341    0.0 1058.34    -136.942079998045    -136.942079998045    -136.821423553516    -136.818772261373   0.0000   0.0000   0.0000   0.0000
   1052    0.002703006936384    0.0 1070.22    -136.943490795383    -136.943490795383    -136.821480381223    -136.818777374287   0.0000   0.0000   0.0000   0.0000
   1053    0.002747932346250    0.0 1080.18    -136.944676412397    -136.944676412397    -136.821529928688    -136.818781996341   0.0000   0.0000   0.0000   0.0000
   1054    0.002783486074017    0.0 1087.66    -136.945568332659    -136.945568332659    -136.821569171381    -136.818785685307   0.0000   0.0000   0.0000   0.0000
   1055    0.002809526822276    0.0 1092.19    -136.946113095852    -136.946113095852    -136.821597630322    -136.818788103500   0.0000   0.0000   0.0000   0.0000
   1056    0.002826831283945    0.0 1093.47    -136.946277332911    -136.946277332911    -136.821615826263    -136.818788994979   0.0000   0.0000   0.0000   0.0000
   1057    0.002834720963617    0.0 1091.43    -136.946051157795    -136.946051157795    -136.821622885856    -136.818788164893   0.0000   0.0000   0.0000   0.0000
   1058    0.002831522952659    0.0 1086.21    -136.945450427399    -136.945450427399    -136.821617008908    -136.818785485956   0.0000   0.0000   0.0000   0.0000
   1059    0.002817193453360    0.0 1078.19    -136.944517757430    -136.944517757430    -136.821598388941    -136.818781195488   0.0000   0.0000   0.0000   0.0000
   1060    0.002793578845927    0.0 1067.94    -136.943320140616    -136.943320140616    -136.821569305309    -136.818775726463   0.0000   0.0000   0.0000   0.0000

   writing restart file (with schema): ./h2o_51.save/
     restart      :      1.74s CPU      7.37s WALL (      96 calls)
   1061    0.002762420367314    0.0 1056.20    -136.941944099545    -136.941944099545    -136.821531584742    -136.818769164375   0.0000   0.0000   0.0000   0.0000
   1062    0.002725265529157    0.0 1043.85    -136.940491340500    -136.940491340500    -136.821487313256    -136.818762047727   0.0000   0.0000   0.0000   0.0000
   1063    0.002685099108476    0.0 1031.80    -136.939070921220    -136.939070921220    -136.821440077672    -136.818754978564   0.0000   0.0000   0.0000   0.0000
   1064    0.002647393507311    0.0 1020.96    -136.937790816975    -136.937790816975    -136.821395819378    -136.818748425871   0.0000   0.0000   0.0000   0.0000
   1065    0.002617792756610    0.0 1012.14    -136.936750540114    -136.936750540114    -136.821360838743    -136.818743045986   0.0000   0.0000   0.0000   0.0000
   1066    0.002597995175468    0.0 1006.06    -136.936033275269    -136.936033275269    -136.821337055447    -136.818739060271   0.0000   0.0000   0.0000   0.0000
   1067    0.002585721800840    0.0 1003.27    -136.935700689778    -136.935700689778    -136.821322561736    -136.818736839936   0.0000   0.0000   0.0000   0.0000
   1068    0.002578810421656    0.0 1004.10    -136.935788085338    -136.935788085338    -136.821315188820    -136.818736378399   0.0000   0.0000   0.0000   0.0000
   1069    0.002578895229196    0.0 1008.61    -136.936303378521    -136.936303378521    -136.821316398202    -136.818737502973   0.0000   0.0000   0.0000   0.0000
   1070    0.002589785700224    0.0 1016.61    -136.937228849425    -136.937228849425    -136.821329992693    -136.818740206993   0.0000   0.0000   0.0000   0.0000

   writing restart file (with schema): ./h2o_51.save/
     restart      :      1.76s CPU      7.40s WALL (      97 calls)
   1071    0.002612239536320    0.0 1027.73    -136.938523070006    -136.938523070006    -136.821356447745    -136.818744208208   0.0000   0.0000   0.0000   0.0000
   1072    0.002642695022832    0.0 1041.47    -136.940125151236    -136.940125151236    -136.821391707129    -136.818749012106   0.0000   0.0000   0.0000   0.0000
   1073    0.002677333250109    0.0 1057.23    -136.941961030237    -136.941961030237    -136.821431481283    -136.818754148033   0.0000   0.0000   0.0000   0.0000
   1074    0.002714818520020    0.0 1074.30    -136.943949767880    -136.943949767880    -136.821474264226    -136.818759445706   0.0000   0.0000   0.0000   0.0000
   1075    0.002754032518882    0.0 1091.97    -136.946008286933    -136.946008286933    -136.821518439412    -136.818764406893   0.0000   0.0000   0.0000   0.0000
   1076    0.002791478558671    0.0 1109.58    -136.948057699868    -136.948057699868    -136.821560239930    -136.818768761371   0.0000   0.0000   0.0000   0.0000
   1077    0.002822236588037    0.0 1126.55    -136.950027694675    -136.950027694675    -136.821594618145    -136.818772381557   0.0000   0.0000   0.0000   0.0000
   1078    0.002844028565174    0.0 1142.41    -136.951859173748    -136.951859173748    -136.821619002544    -136.818774973978   0.0000   0.0000   0.0000   0.0000
   1079    0.002859576177822    0.0 1156.71    -136.953507183910    -136.953507183910    -136.821636088018    -136.818776511840   0.0000   0.0000   0.0000   0.0000
   1080    0.002873182839654    0.0 1169.17    -136.954941988606    -136.954941988606    -136.821650199657    -136.818777016817   0.0000   0.0000   0.0000   0.0000

   writing restart file (with schema): ./h2o_51.save/
     restart      :      1.77s CPU      7.52s WALL (      98 calls)
   1081    0.002885591753988    0.0 1179.65    -136.956149011606    -136.956149011606    -136.821662348936    -136.818776757182   0.0000   0.0000   0.0000   0.0000
   1082    0.002893790950251    0.0 1188.17    -136.957126745636    -136.957126745636    -136.821669491723    -136.818775700773   0.0000   0.0000   0.0000   0.0000
   1083    0.002896261325991    0.0 1194.82    -136.957885527265    -136.957885527265    -136.821670198408    -136.818773937082   0.0000   0.0000   0.0000   0.0000
   1084    0.002895728625996    0.0 1199.75    -136.958445201766    -136.958445201766    -136.821667502943    -136.818771774317   0.0000   0.0000   0.0000   0.0000
   1085    0.002895695491390    0.0 1203.16    -136.958831558264    -136.958831558264    -136.821665125895    -136.818769430404   0.0000   0.0000   0.0000   0.0000
   1086    0.002896116391331    0.0 1205.29    -136.959073011650    -136.959073011650    -136.821663574743    -136.818767458351   0.0000   0.0000   0.0000   0.0000
   1087    0.002893855953262    0.0 1206.40    -136.959195170688    -136.959195170688    -136.821659767847    -136.818765911893   0.0000   0.0000   0.0000   0.0000
   1088    0.002887721205838    0.0 1206.66    -136.959217859533    -136.959217859533    -136.821652602526    -136.818764881321   0.0000   0.0000   0.0000   0.0000
   1089    0.002880175989488    0.0 1206.15    -136.959152206200    -136.959152206200    -136.821644899904    -136.818764723914   0.0000   0.0000   0.0000   0.0000
   1090    0.002873492983146    0.0 1204.84    -136.958996941189    -136.958996941189    -136.821639008385    -136.818765515402   0.0000   0.0000   0.0000   0.0000

   writing restart file (with schema): ./h2o_51.save/
     restart      :      1.79s CPU      7.55s WALL (      99 calls)
   1091    0.002867358466010    0.0 1202.60    -136.958737361859    -136.958737361859    -136.821634653154    -136.818767294688   0.0000   0.0000   0.0000   0.0000
   1092    0.002860472576421    0.0 1199.20    -136.958345248437    -136.958345248437    -136.821630603537    -136.818770130960   0.0000   0.0000   0.0000   0.0000
   1093    0.002852134933521    0.0 1194.27    -136.957778952511    -136.957778952511    -136.821625898768    -136.818773763835   0.0000   0.0000   0.0000   0.0000
   1094    0.002841829117658    0.0 1187.38    -136.956986612840    -136.956986612840    -136.821619349937    -136.818777520820   0.0000   0.0000   0.0000   0.0000
   1095    0.002828081229933    0.0 1178.05    -136.955912993398    -136.955912993398    -136.821609330689    -136.818781249459   0.0000   0.0000   0.0000   0.0000
   1096    0.002807959773834    0.0 1165.84    -136.954504438370    -136.954504438370    -136.821592502274    -136.818784542500   0.0000   0.0000   0.0000   0.0000
   1097    0.002778742235596    0.0 1150.39    -136.952715752734    -136.952715752734    -136.821565462226    -136.818786719991   0.0000   0.0000   0.0000   0.0000
   1098    0.002738839907703    0.0 1131.46    -136.950518586330    -136.950518586330    -136.821526237106    -136.818787397198   0.0000   0.0000   0.0000   0.0000
   1099    0.002686425885364    0.0 1109.03    -136.947907510822    -136.947907510822    -136.821472524553    -136.818786098668   0.0000   0.0000   0.0000   0.0000

 * Physical Quantities at step:  1100

   from rhoofr: total integrated electronic density
   in g-space =     64.000000   in r-space =    64.000000


                total energy =     -136.94490547517 Hartree a.u.
              kinetic energy =       97.45428 Hartree a.u.
        electrostatic energy =     -185.29044 Hartree a.u.
                         esr =        0.01228 Hartree a.u.
                       eself =      242.55691 Hartree a.u.
      pseudopotential energy =       -9.31734 Hartree a.u.
  n-l pseudopotential energy =       -6.16347 Hartree a.u.
 exchange-correlation energy =      -33.62793 Hartree a.u.
           average potential =        0.00000 Hartree a.u.



   Eigenvalues (eV), kp =   1 , spin =  1

  -23.64  -23.27  -23.00  -22.88  -22.70  -22.57  -22.07  -21.25  -11.56  -11.44
  -11.07  -10.61  -10.53  -10.32   -9.35   -9.12   -8.28   -7.93   -7.35   -7.25
   -7.10   -6.83   -6.11   -5.93   -5.40   -5.32   -4.99   -4.88   -4.83   -4.58
   -4.50   -3.92


   CELL_PARAMETERS
   13.00000000    0.00000000    0.00000000
    0.00000000   13.00000000    0.00000000
    0.00000000    0.00000000   13.00000000

   System Density [g/cm^3] :              0.7351364820


   System Volume [A.U.^3] :           2197.0000000000


   Center of mass square displacement (a.u.):   0.000000

   ATOMIC_POSITIONS
   O       0.72459594630961E+01     0.31847893328130E+01     0.34715210470852E+01
   H       0.57739908195553E+01     0.41325831047544E+01     0.34911998754047E+01
   H       0.65423118248205E+01     0.15039068463993E+01     0.28571352199165E+01
   O       0.37220615684712E+01    -0.55883046960020E+01     0.19530511646885E+01
   H       0.55099283471304E+01    -0.45332252507079E+01     0.22361270149755E+01
   H       0.24078450936537E+01    -0.51062039063612E+01     0.29062875604947E+01
   O      -0.55135452581031E+01    -0.22989208978075E+01     0.34381431407938E+01
   H      -0.39162512445714E+01    -0.16840026149217E+01     0.30644964525633E+01
   H      -0.55397970716574E+01    -0.31418698941985E+01     0.53407910693779E+01
   O      -0.15060529360394E+01     0.59582818218966E+01     0.20441956039402E+01
   H      -0.30093822673115E+01     0.48095372197700E+01     0.27149144719363E+01
   H      -0.42154892898627E+00     0.47719594062797E+01     0.12409603519955E+01
   O       0.14532304836300E+01    -0.51534712948080E+01    -0.34149486141951E+01
   H       0.20824749141089E+01    -0.50397039170598E+01    -0.18254978496181E+01
   H       0.21840811906102E+01    -0.41965706099648E+01    -0.49470235092650E+01
   O      -0.50230955104696E+01    -0.41215002842170E+01    -0.48769029969797E+01
   H      -0.50284902278546E+01    -0.26930704776709E+01    -0.36787550867376E+01
   H      -0.47522721015410E+01    -0.57156974643210E+01    -0.33979586852808E+01
   O      -0.42404908801444E+01     0.53036276403898E+01    -0.19325990330082E+01
   H      -0.37967655058799E+01     0.61623154998992E+01     0.10810445768908E-01
   H      -0.59913577271796E+01     0.50254548040860E+01    -0.18794343353511E+01
   O       0.39927237242282E+01     0.26297647686120E+01    -0.35656108190575E+01
   H       0.23632051080623E+01     0.26061900790747E+01    -0.24195596343860E+01
   H       0.35157796624444E+01     0.44593831318677E+01    -0.42789632628887E+01

   ATOMIC_VELOCITIES
   O       0.52540065715493E-03    -0.18218863017022E-04     0.52647449030435E-04
   H      -0.10161978578979E-02    -0.10325105803660E-02    -0.53256644173942E-03
   H       0.25102982975137E-02     0.56009778964501E-03    -0.20902644421145E-03
   O      -0.26915707098726E-03    -0.18573402299445E-03     0.46534890510020E-03
   H       0.18121273484261E-02     0.17026349637064E-03    -0.13715291700913E-02
   H       0.49822971166242E-03    -0.69646694821772E-03    -0.46194935608368E-02
   O       0.37233372748013E-04     0.26007539256439E-03    -0.13226798679812E-03
   H      -0.21321185672456E-02    -0.52502165710950E-03     0.80466360177697E-04
   H      -0.34681734250659E-03     0.14537219424003E-02    -0.30626743021024E-03
   O       0.93675496945063E-04     0.39872508350425E-04     0.10247306841391E-03
   H      -0.15463891467513E-03     0.16173903397806E-02    -0.40894059494304E-03
   H       0.17554058655847E-02    -0.55292535355188E-03    -0.27499989160916E-02
   O      -0.32362914775709E-03    -0.22313925502393E-04    -0.15589514443800E-03
   H      -0.14180455227923E-02     0.65903600890622E-03     0.32909798760560E-02
   H      -0.44031344766896E-03     0.64818431101323E-03    -0.15464825468140E-02
   O      -0.12587783064418E-03     0.18342873808717E-03    -0.18652018910302E-03
   H       0.21728380547605E-03     0.22287130594672E-02     0.19914410785167E-02
   H      -0.91610426965619E-03    -0.10030483292219E-02     0.84406480817298E-03
   O      -0.32651716233273E-03    -0.18355846702989E-04     0.29825544716319E-04
   H       0.14139415318655E-02     0.11496111127079E-02     0.14205677208135E-02
   H       0.29081590406809E-02    -0.13211825526054E-02     0.25942569042506E-03
   O       0.27612480944509E-03    -0.28132945295273E-03    -0.54215711366323E-04
   H      -0.17304568524167E-02     0.13803244497256E-03     0.36865477663555E-03
   H      -0.11709423224870E-02    -0.28180268882619E-02     0.15615940005257E-02



   Partial temperatures (for each ionic specie) 
   Species  Temp (K)   Mean Square Displacement (a.u.)
        1   4.57E+02     4.1235E+00
        2   1.40E+03     7.8796E+00

  nfi     ekinc              temph  tempp     etot                 enthal               econs                econt              vnhh    xnhh0   vnhp    xnhp0
   1100    0.002619842949532    0.0 1083.31    -136.944905475166    -136.944905475166    -136.821402585009    -136.818782742059   0.0000   0.0000   0.0000   0.0000

   writing restart file (with schema): ./h2o_51.save/
     restart      :      1.80s CPU      7.62s WALL (     100 calls)


   Averaged Physical Quantities
                      accumulated      this run
   ekinc         :        0.00254       0.00280 (AU)
   ekin          :       97.69884      97.70032 (AU)
   epot          :     -228.43340    -228.43501 (AU)
   total energy  :     -136.94667    -136.94826 (AU)
   temperature   :     1095.88528    1111.33297 (K )
   enthalpy      :     -124.49842    -136.94826 (AU)
   econs         :     -136.82173    -136.82156 (AU)
   pressure      :        0.00000       0.00000 (Gpa)
   volume        :     2197.00000    2197.00000 (AU)



     Called by MAIN_LOOP:
     initialize   :      1.01s CPU      1.01s WALL (       1 calls)
     main_loop    :     90.02s CPU     94.83s WALL (    1000 calls)
     cpr_total    :     91.86s CPU    102.50s WALL (       1 calls)

     Called by INIT_RUN:
     init_readfil :      0.05s CPU      0.06s WALL (       1 calls)

     Called by CPR:
     cpr_md       :     91.86s CPU    102.49s WALL (    1000 calls)
     move_electro :     70.12s CPU     74.73s WALL (    1000 calls)

     Called by move_electrons:
     rhoofr       :     10.01s CPU     11.06s WALL (    1000 calls)
     vofrho       :     26.06s CPU     27.66s WALL (    1000 calls)
     dforce       :     18.09s CPU     19.76s WALL (   16000 calls)
     calphi       :      0.21s CPU      0.22s WALL (    1000 calls)
     nlfl         :      0.04s CPU      0.04s WALL (    1000 calls)

     Called by ortho:
     ortho_iter   :      6.18s CPU      6.19s WALL (    1000 calls)
     rsg          :      0.33s CPU      0.33s WALL (    1000 calls)
     rhoset       :      1.56s CPU      1.57s WALL (    1000 calls)
     sigset       :      1.57s CPU      1.57s WALL (    1000 calls)
     tauset       :      1.57s CPU      1.57s WALL (    1000 calls)
     ortho        :     11.25s CPU     11.27s WALL (    1000 calls)
     updatc       :      1.18s CPU      1.19s WALL (    1000 calls)

     Small boxes:

     Low-level routines:
     prefor       :      1.12s CPU      1.15s WALL (    2001 calls)
     nlfq         :     14.82s CPU     15.07s WALL (    1000 calls)
     nlsm1        :      5.31s CPU      5.32s WALL (    1001 calls)
     nlsm2        :     14.75s CPU     15.01s WALL (    1000 calls)
     fft          :      6.62s CPU      7.50s WALL (    8100 calls)
     ffts         :      1.61s CPU      1.78s WALL (    2000 calls)
     fftw         :     20.21s CPU     22.27s WALL (   48000 calls)
     fft_scatt_xy :      2.49s CPU      2.76s WALL (   58100 calls)
     fft_scatt_yz :     11.75s CPU     13.27s WALL (   58100 calls)
     fft_scatt_tg :      0.32s CPU      0.35s WALL (   48000 calls)
     betagx       :      0.61s CPU      0.61s WALL (       1 calls)
     qradx        :      0.00s CPU      0.00s WALL (       1 calls)
     nlinit       :      0.90s CPU      0.90s WALL (       1 calls)
     init_dim     :      0.02s CPU      0.02s WALL (       1 calls)
     newnlinit    :      0.00s CPU      0.00s WALL (       1 calls)
     from_restart :      0.01s CPU      0.01s WALL (       1 calls)
     strucf       :      0.81s CPU      0.83s WALL (    1001 calls)
     calbec       :      5.32s CPU      5.32s WALL (    1001 calls)


     CP           :   1m32.90s CPU   1m43.54s WALL


   This run was terminated on:  21:56:56  20Apr2021            

=------------------------------------------------------------------------------=
   JOB DONE.
=------------------------------------------------------------------------------=
