
     Program CP v.6.7MaX starts on 20Apr2021 at 21:56:57 

     This program is part of the open-source Quantum ESPRESSO suite
     for quantum simulation of materials; please cite
         "P. Giannozzi et al., J. Phys.:Condens. Matter 21 395502 (2009);
         "P. Giannozzi et al., J. Phys.:Condens. Matter 29 465901 (2017);
          URL http://www.quantum-espresso.org", 
     in publications or presentations arising from this work. More details at
     http://www.quantum-espresso.org/quote

     Parallel version (MPI), running on    12 processors

     MPI processes distributed on     1 nodes
     R & G space division:  proc/nbgrp/npool/nimage =      12
     Reading input from ../water8.in.2.NH
Warning: card  &CELL ignored
Warning: card     CELL_DYNAMICS = 'NONE', ignored
Warning: card  / ignored

   Job Title: Water 8 molecules


   Atomic Pseudopotentials Parameters
   ----------------------------------

   Reading pseudopotential for specie #  1 from file :
   ./O_ONCV_PBE-1.2.upf
     Message from routine read_pp_mesh:
     mesh size missing, using the one in header
   file type is xml

   Reading pseudopotential for specie #  2 from file :
   ./H_ONCV_PBE-1.2.upf
     Message from routine read_pp_mesh:
     mesh size missing, using the one in header
   file type is xml


   Main Simulation Parameters (from input)
   ---------------------------------------
   Restart Mode       =       1   restart        
   Number of MD Steps =    1000
   Print out every           10 MD Steps
   Reads from unit    =      51
   Writes to unit     =      52
   MD Simulation time step            =       5.00
   Electronic fictitious mass (emass) =      50.00
   emass cut-off                      =       2.50

   Simulation Cell Parameters (from input)
   external pressure       =            0.00 [KBar]
   wmass (calculated)      =        19964.81 [AU]
   ibrav =    1
   alat  =    13.00000000
   a1    =    13.00000000    0.00000000    0.00000000
   a2    =     0.00000000   13.00000000    0.00000000
   a3    =     0.00000000    0.00000000   13.00000000

   b1    =     0.07692308    0.00000000    0.00000000
   b2    =     0.00000000    0.07692308    0.00000000
   b3    =     0.00000000    0.00000000    0.07692308
   omega =    2197.00000000

   Energy Cut-offs
   ---------------
   Ecutwfc =   50.0 Ry,      Ecutrho =  200.0 Ry,      Ecuts =  200.0 Ry
   Gcutwfc =   14.6     ,    Gcutrho =   29.3          Gcuts =   29.3
   NOTA BENE: refg, mmx =   0.050000  4800
   Eigenvalues calculated without the kinetic term contribution
   Orthog. with lagrange multipliers : eps =   0.10E-08,  max = 300
   Electron dynamics with newton equations
   Electron dynamics : the temperature is not controlled

   Electronic states
   -----------------
   Number of Electrons=    64, of States =    32
   Occupation numbers :
   2.00 2.00 2.00 2.00 2.00 2.00 2.00 2.00 2.00 2.00
   2.00 2.00 2.00 2.00 2.00 2.00 2.00 2.00 2.00 2.00
   2.00 2.00 2.00 2.00 2.00 2.00 2.00 2.00 2.00 2.00
   2.00 2.00


   Exchange and correlations functionals
   -------------------------------------
     Exchange-correlation= PBE
                           (   1   4   3   4   0   0   0)


   Ions Simulation Parameters
   --------------------------
   Ions are allowed to move
   Ions dynamics with newton equations
   the temperature is computed for    72 degrees of freedom
   ion dynamics with fricp =  0.0000 and greasp =  1.0000
   Ionic position (from input)
   sorted by specie, and converted to real a.u. coordinates
   Species   1 atoms =    8 mass =     29166.22 (a.u.),        16.00 (amu) rcmax =   0.50 (a.u.)
        4.842510     3.796199     3.732738
        3.735657    -4.474700     2.924274
       -4.546686    -3.542262     3.060744
       -3.436506     4.804268     3.377234
        3.614420    -4.282746    -3.989998
       -4.437095    -4.025366    -4.085110
       -3.558789     3.877301    -3.819233
        3.837783     3.820409    -4.507997
   Species   2 atoms =   16 mass =      1837.29 (a.u.),         1.01 (amu) rcmax =   0.50 (a.u.)
        4.004590     5.986780     3.533013
        4.365118     3.872322     5.879773
        6.059148    -3.795031     3.153403
        2.874962    -3.958672     4.675187
       -3.748838    -5.811626     3.320758
       -4.053948    -2.574364     4.768354
       -5.904151     4.217430     3.801415
       -2.303077     4.672005     5.082136
        3.119866    -4.561070    -2.002200
        5.914480    -3.952983    -3.866628
       -3.950822    -3.684809    -2.102720
       -3.940399    -6.190475    -4.165351
       -3.233219     3.435242    -1.818055
       -5.690475     3.479664    -3.789435
        2.013136     3.092241    -3.913112
        3.659354     6.200317    -4.387039
   Ionic position will be re-read from restart file

   All atoms are allowed to move
   Ionic temperature control via nose thermostat


   ion dynamics with nose` temperature control:
   temperature required      =  600.00000 (kelvin) 
   NH chain length           =   3
   active degrees of freedom =     72
   time steps per nose osc.  =   1653


   nose` frequency(es)       =       5.000     -1.000     -1.000


   the requested type of NH chains is     0
   total number of thermostats used     1 0 0
   ionic degrees of freedom for each chain   72


   nose` mass(es) for chain    1 =  473811.959   6580.722   6580.722


   atom i (in sorted order) is assigned to this thermostat :
   1   1   1   1   1   1   1   1   1   1   1   1   1   1   1   1   1   1   1   1
   1   1   1   1


   Cell Dynamics Parameters (from STDIN)
   -------------------------------------
   Starting cell generated from CELLDM
   Cell parameters will be re-read from restart file
   Constant VOLUME Molecular dynamics
   cell parameters are not allowed to move

   Verbosity: iverbosity =  0



   Simulation dimensions initialization
   ------------------------------------

   unit vectors of full simulation cell
   in real space:                         in reciprocal space (units 2pi/alat):
   1    13.0000    0.0000    0.0000              1.0000    0.0000    0.0000
   2     0.0000   13.0000    0.0000              0.0000    1.0000    0.0000
   3     0.0000    0.0000   13.0000              0.0000    0.0000    1.0000

     Parallelization info
     --------------------
     sticks:   dense  smooth     PW     G-vecs:    dense   smooth      PW
     Min         224     224     55                 8748     8748    1096
     Max         226     226     58                 8754     8754    1104
     Sum        2701    2701    673               105015   105015   13205


   Real Mesh
   ---------
   Global Dimensions   Local  Dimensions   Processor Grid
   .X.   .Y.   .Z.     .X.   .Y.   .Z.     .X.   .Y.   .Z.
    60    60    60      60    60     5       1     1    12
   Array leading dimensions ( nr1x, nr2x, nr3x )   =     60    60    60
   Local number of cell to store the grid ( nrxx ) =      18000
   Number of x-y planes for each processors: 
  |  60,   5  |  60,   5  |  60,   5  |  60,   5  |  60,   5
  |  60,   5  |  60,   5  |  60,   5  |  60,   5  |  60,   5
  |  60,   5  |  60,   5  |

   Smooth Real Mesh
   ----------------
   Global Dimensions   Local  Dimensions   Processor Grid
   .X.   .Y.   .Z.     .X.   .Y.   .Z.     .X.   .Y.   .Z.
    60    60    60      60    60     5       1     1    12
   Array leading dimensions ( nr1x, nr2x, nr3x )   =     60    60    60
   Local number of cell to store the grid ( nrxx ) =      18000
   Number of x-y planes for each processors: 
  |  60,   5  |  60,   5  |  60,   5  |  60,   5  |  60,   5
  |  60,   5  |  60,   5  |  60,   5  |  60,   5  |  60,   5
  |  60,   5  |  60,   5  |

   Reciprocal Space Mesh
   ---------------------
   Large Mesh
     Global(ngm_g)    MinLocal       MaxLocal      Average
          52508           4374           4377        4375.67
   Smooth Mesh
     Global(ngms_g)   MinLocal       MaxLocal      Average
          52508           4374           4377        4375.67
   Wave function Mesh
     Global(ngw_g)    MinLocal       MaxLocal      Average
           6603            548            552         550.25


   System geometry initialization
   ------------------------------
   cell parameters read from restart file
   ibrav =    1       cell parameters 


   cell at current step : h(t)
      13.00000       0.00000       0.00000
       0.00000      13.00000       0.00000
       0.00000       0.00000      13.00000

   cell at previous step : h(t-dt)
      13.00000       0.00000       0.00000
       0.00000      13.00000       0.00000
       0.00000       0.00000      13.00000


   Matrix Multiplication Performances
   ortho mmul, time for parallel driver      =   0.00005 with    1 procs

   Constraints matrixes will be distributed block like on
   ortho sub-group =    1*   1 procs



   Pseudopotentials initialization
   -------------------------------


   Common initialization

   Specie:     1
   1  indv=  1   ang. mom=  0
   2  indv=  2   ang. mom=  0
   3  indv=  3   ang. mom=  1
   4  indv=  3   ang. mom=  1
   5  indv=  3   ang. mom=  1
   6  indv=  4   ang. mom=  1
   7  indv=  4   ang. mom=  1
   8  indv=  4   ang. mom=  1

                        dion 
   9.7572   0.0000   0.0000   0.0000
   0.0000   1.3761   0.0000   0.0000
   0.0000   0.0000  -4.8069   0.0000
   0.0000   0.0000   0.0000  -1.6162

   Specie:     2
   1  indv=  1   ang. mom=  0
   2  indv=  2   ang. mom=  0

                        dion 
 -12.0082   0.0000
   0.0000  -0.5168

   Cell parameters from input file are used in electron mass preconditioning
   init_tpiba2=    0.23360010

   Short Legend and Physical Units in the Output
   ---------------------------------------------
   NFI    [int]          - step index
   EKINC  [HARTREE A.U.] - kinetic energy of the fictitious electronic dynamics
   TEMPH  [K]            - Temperature of the fictitious cell dynamics
   TEMP   [K]            - Ionic temperature
   ETOT   [HARTREE A.U.] - Scf total energy (Kohn-Sham hamiltonian)
   ENTHAL [HARTREE A.U.] - Enthalpy ( ETOT + P * V )
   ECONS  [HARTREE A.U.] - Enthalpy + kinetic energy of ions and cell
   ECONT  [HARTREE A.U.] - Constant of motion for the CP lagrangian


   formf: eself=   242.55691
   formf:     vps(g=0)=  -0.0005593     rhops(g=0)=  -0.0026914
   formf:     vps(g=0)=  -0.0005508     rhops(g=0)=  -0.0026524
   formf:     vps(g=0)=  -0.0005508     rhops(g=0)=  -0.0026524
   formf:     vps(g=0)=  -0.0005265     rhops(g=0)=  -0.0025387
   formf:     vps(g=0)=  -0.0005265     rhops(g=0)=  -0.0025387
   formf: sum_g vps(g)=  -0.8825069 sum_g rhops(g)=  -4.3113902
   formf:     vps(g=0)=  -0.0002744     rhops(g=0)=  -0.0004486
   formf:     vps(g=0)=  -0.0002718     rhops(g=0)=  -0.0004421
   formf:     vps(g=0)=  -0.0002718     rhops(g=0)=  -0.0004421
   formf:     vps(g=0)=  -0.0002644     rhops(g=0)=  -0.0004231
   formf:     vps(g=0)=  -0.0002644     rhops(g=0)=  -0.0004231
   formf: sum_g vps(g)=  -1.1488875 sum_g rhops(g)=  -0.7185650
   Delta V(G=0):   0.022861Ry,    0.622068eV

  nfi     ekinc              temph  tempp     etot                 enthal               econs                econt              vnhh    xnhh0   vnhp    xnhp0
   1101    0.002540231945621    0.0 1054.76    -136.941566124344    -136.941566124344    -136.821317864665    -136.818777558378   0.0000   0.0000   0.0000   0.0000
   1102    0.002452535604661    0.0 1024.08    -136.937974122800    -136.937974122800    -136.821224132331    -136.818770234997   0.0000   0.0000   0.0000   0.0000
   1103    0.002362312042220    0.0  992.19    -136.934242087600    -136.934242087600    -136.821127503537    -136.818761408317   0.0000   0.0000   0.0000   0.0000
   1104    0.002272194129909    0.0  960.25    -136.930504251506    -136.930504251506    -136.821031060692    -136.818751687908   0.0000   0.0000   0.0000   0.0000
   1105    0.002182812935123    0.0  929.52    -136.926906780300    -136.926906780300    -136.820936143884    -136.818741931258   0.0000   0.0000   0.0000   0.0001
   1106    0.002097034967265    0.0  901.27    -136.923596046209    -136.923596046209    -136.820846088822    -136.818732736324   0.0000   0.0000   0.0000   0.0001
   1107    0.002021504756651    0.0  876.63    -136.920708247974    -136.920708247974    -136.820768396408    -136.818725062472   0.0000   0.0000   0.0000   0.0001
   1108    0.001961907827577    0.0  856.52    -136.918357279420    -136.918357279420    -136.820709452674    -136.818719683836   0.0000   0.0000   0.0000   0.0001
   1109    0.001918855328129    0.0  841.67    -136.916624358531    -136.916624358531    -136.820670025739    -136.818716800362   0.0000   0.0000   0.0000   0.0002
   1110    0.001890682449576    0.0  832.46    -136.915552957121    -136.915552957121    -136.820648418061    -136.818716392439   0.0000   0.0000   0.0000   0.0002

   writing restart file (with schema): ./h2o_52.save/
     restart      :      0.02s CPU      0.03s WALL (       1 calls)
   1111    0.001877909440608    0.0  828.93    -136.915147531524    -136.915147531524    -136.820645238125    -136.818718534324   0.0000   0.0000   0.0000   0.0002
   1112    0.001882027756831    0.0  830.77    -136.915374267908    -136.915374267908    -136.820661787404    -136.818722999095   0.0000   0.0000   0.0000   0.0003
   1113    0.001901263836235    0.0  837.42    -136.916165932991    -136.916165932991    -136.820695584700    -136.818729023893   0.0000   0.0000   0.0000   0.0003
   1114    0.001930301510448    0.0  848.12    -136.917431281741    -136.917431281741    -136.820740721417    -136.818735947357   0.0000   0.0000   0.0000   0.0004
   1115    0.001964229127024    0.0  862.00    -136.919064627173    -136.919064627173    -136.820791707264    -136.818743112658   0.0000   0.0000   0.0000   0.0004
   1116    0.002001544822467    0.0  878.11    -136.920955406475    -136.920955406475    -136.820846576578    -136.818749972993   0.0000   0.0000   0.0000   0.0005
   1117    0.002042613774894    0.0  895.50    -136.922997057756    -136.922997057756    -136.820905147349    -136.818755897527   0.0000   0.0000   0.0000   0.0005
   1118    0.002086376695634    0.0  913.38    -136.925095592666    -136.925095592666    -136.820966070113    -136.818760515068   0.0000   0.0000   0.0000   0.0006
   1119    0.002129323284822    0.0  931.09    -136.927175220771    -136.927175220771    -136.821025899388    -136.818763814156   0.0000   0.0000   0.0000   0.0007
   1120    0.002167860234051    0.0  948.20    -136.929180481208    -136.929180481208    -136.821080901653    -136.818765584140   0.0000   0.0000   0.0000   0.0007

   writing restart file (with schema): ./h2o_52.save/
     restart      :      0.03s CPU      0.13s WALL (       2 calls)
   1121    0.002201488207531    0.0  964.40    -136.931077953555    -136.931077953555    -136.821130794068    -136.818765977309   0.0000   0.0000   0.0000   0.0008
   1122    0.002232058621650    0.0  979.58    -136.932854443612    -136.932854443612    -136.821177772865    -136.818765280187   0.0000   0.0000   0.0000   0.0009
   1123    0.002260640332531    0.0  993.73    -136.934513363346    -136.934513363346    -136.821223157767    -136.818763689987   0.0000   0.0000   0.0000   0.0010
   1124    0.002286587905525    0.0 1007.01    -136.936071375473    -136.936071375473    -136.821266732273    -136.818761584455   0.0000   0.0000   0.0000   0.0011
   1125    0.002309221722258    0.0 1019.65    -136.937553715793    -136.937553715793    -136.821308294550    -136.818759390142   0.0000   0.0000   0.0000   0.0011
   1126    0.002329609826316    0.0 1031.88    -136.938988614054    -136.938988614054    -136.821349278171    -136.818757419206   0.0000   0.0000   0.0000   0.0012
   1127    0.002350431062866    0.0 1043.90    -136.940402390257    -136.940402390257    -136.821392493692    -136.818755746545   0.0000   0.0000   0.0000   0.0013
   1128    0.002374175969207    0.0 1055.88    -136.941816539861    -136.941816539861    -136.821440731705    -136.818754611328   0.0000   0.0000   0.0000   0.0014
   1129    0.002401274842483    0.0 1067.93    -136.943244822427    -136.943244822427    -136.821494734648    -136.818754260590   0.0000   0.0000   0.0000   0.0016
   1130    0.002430343233421    0.0 1080.11    -136.944691118793    -136.944691118793    -136.821553105277    -136.818754612794   0.0000   0.0000   0.0000   0.0017

   writing restart file (with schema): ./h2o_52.save/
     restart      :      0.06s CPU      0.17s WALL (       3 calls)
   1131    0.002460116352496    0.0 1092.36    -136.946149717335    -136.946149717335    -136.821614605572    -136.818755623925   0.0000   0.0000   0.0000   0.0018
   1132    0.002489878856864    0.0 1104.57    -136.947605676827    -136.947605676827    -136.821678580845    -136.818757284418   0.0000   0.0000   0.0000   0.0019
   1133    0.002518880674638    0.0 1116.54    -136.949035464156    -136.949035464156    -136.821744081369    -136.818759328238   0.0000   0.0000   0.0000   0.0021
   1134    0.002546918422435    0.0 1128.01    -136.950409624924    -136.950409624924    -136.821810885427    -136.818761678164   0.0000   0.0000   0.0000   0.0022
   1135    0.002574506057579    0.0 1138.68    -136.951694825324    -136.951694825324    -136.821879483220    -136.818764262896   0.0000   0.0000   0.0000   0.0024
   1136    0.002601573768484    0.0 1148.25    -136.952855903617    -136.952855903617    -136.821949572128    -136.818766816996   0.0000   0.0000   0.0000   0.0025
   1137    0.002626325061004    0.0 1156.44    -136.953858895780    -136.953858895780    -136.822019181979    -136.818769151757   0.0000   0.0000   0.0000   0.0027
   1138    0.002645797963083    0.0 1163.00    -136.954673219263    -136.954673219263    -136.822085298175    -136.818771218855   0.0000   0.0000   0.0000   0.0028
   1139    0.002657935657544    0.0 1167.73    -136.955272752377    -136.955272752377    -136.822145791963    -136.818772971275   0.0000   0.0000   0.0000   0.0030
   1140    0.002662921293746    0.0 1170.44    -136.955637075415    -136.955637075415    -136.822200646791    -136.818774255935   0.0000   0.0000   0.0000   0.0032

   writing restart file (with schema): ./h2o_52.save/
     restart      :      0.07s CPU      0.23s WALL (       4 calls)
   1141    0.002662234319846    0.0 1171.02    -136.955753552722    -136.955753552722    -136.822251132962    -136.818774932119   0.0000   0.0000   0.0000   0.0034
   1142    0.002656676500266    0.0 1169.43    -136.955618994551    -136.955618994551    -136.822298012238    -136.818775048328   0.0000   0.0000   0.0000   0.0036
   1143    0.002645808007835    0.0 1165.73    -136.955239550670    -136.955239550670    -136.822340763979    -136.818774628795   0.0000   0.0000   0.0000   0.0038
   1144    0.002629644667546    0.0 1160.05    -136.954630624118    -136.954630624118    -136.822379071859    -136.818773458489   0.0000   0.0000   0.0000   0.0040
   1145    0.002610039643893    0.0 1152.61    -136.953818408976    -136.953818408976    -136.822414701184    -136.818771573657   0.0000   0.0000   0.0000   0.0042
   1146    0.002588652235000    0.0 1143.72    -136.952839730982    -136.952839730982    -136.822449470371    -136.818769258134   0.0000   0.0000   0.0000   0.0044
   1147    0.002564678784767    0.0 1133.79    -136.951739957733    -136.951739957733    -136.822482301003    -136.818766354543   0.0000   0.0000   0.0000   0.0047
   1148    0.002537019338316    0.0 1123.29    -136.950572924505    -136.950572924505    -136.822511988314    -136.818762859653   0.0000   0.0000   0.0000   0.0049
   1149    0.002507332067326    0.0 1112.75    -136.949399567780    -136.949399567780    -136.822540430224    -136.818759091578   0.0000   0.0000   0.0000   0.0051
   1150    0.002479614078235    0.0 1102.69    -136.948284581400    -136.948284581400    -136.822571668228    -136.818755143852   0.0000   0.0000   0.0001   0.0054

   writing restart file (with schema): ./h2o_52.save/
     restart      :      0.09s CPU      0.27s WALL (       5 calls)
   1151    0.002457525119674    0.0 1093.67    -136.947294247748    -136.947294247748    -136.822609727633    -136.818751396544   0.0000   0.0000   0.0001   0.0057
   1152    0.002441738211046    0.0 1086.23    -136.946491989317    -136.946491989317    -136.822655850110    -136.818748393297   0.0000   0.0000   0.0001   0.0059
   1153    0.002430692709254    0.0 1080.86    -136.945932515088    -136.945932515088    -136.822708404349    -136.818745996143   0.0000   0.0000   0.0001   0.0062
   1154    0.002425026145320    0.0 1077.95    -136.945660185640    -136.945660185640    -136.822768124715    -136.818744193452   0.0000   0.0000   0.0001   0.0065
   1155    0.002428367805919    0.0 1077.74    -136.945706965706    -136.945706965706    -136.822839377265    -136.818743577194   0.0000   0.0000   0.0001   0.0067
   1156    0.002442828437627    0.0 1080.33    -136.946087431726    -136.946087431726    -136.822924489061    -136.818744189281   0.0000   0.0000   0.0001   0.0070
   1157    0.002466658618937    0.0 1085.70    -136.946797754152    -136.946797754152    -136.823021792072    -136.818745914488   0.0000   0.0000   0.0001   0.0073
   1158    0.002496375392464    0.0 1093.71    -136.947816746602    -136.947816746602    -136.823127862961    -136.818748602123   0.0000   0.0000   0.0001   0.0076
   1159    0.002530184028253    0.0 1104.05    -136.949107929191    -136.949107929191    -136.823240906364    -136.818752037924   0.0000   0.0000   0.0001   0.0079
   1160    0.002569030933761    0.0 1116.27    -136.950622668501    -136.950622668501    -136.823361897383    -136.818756045089   0.0000   0.0000   0.0001   0.0082

   writing restart file (with schema): ./h2o_52.save/
     restart      :      0.11s CPU      0.36s WALL (       6 calls)
   1161    0.002614622819034    0.0 1129.87    -136.952303815548    -136.952303815548    -136.823492242416    -136.818760136237   0.0000   0.0000   0.0001   0.0085
   1162    0.002666940430497    0.0 1144.33    -136.954091187962    -136.954091187962    -136.823631890391    -136.818764117986   0.0000   0.0000   0.0001   0.0089
   1163    0.002722825090474    0.0 1159.14    -136.955925301489    -136.955925301489    -136.823777555278    -136.818767730394   0.0000   0.0000   0.0001   0.0092
   1164    0.002777551312333    0.0 1173.86    -136.957750993470    -136.957750993470    -136.823924346097    -136.818770705402   0.0000   0.0000   0.0001   0.0095
   1165    0.002828241284267    0.0 1188.11    -136.959520341432    -136.959520341432    -136.824069591256    -136.818773177153   0.0000   0.0000   0.0001   0.0099
   1166    0.002875326937363    0.0 1201.51    -136.961192260409    -136.961192260409    -136.824213880326    -136.818775262736   0.0000   0.0000   0.0001   0.0102
   1167    0.002921256883755    0.0 1213.73    -136.962731347264    -136.962731347264    -136.824359745042    -136.818777037551   0.0000   0.0000   0.0001   0.0106
   1168    0.002967547396727    0.0 1224.48    -136.964106381869    -136.964106381869    -136.824508919858    -136.818778745477   0.0000   0.0000   0.0001   0.0109
   1169    0.003012585654487    0.0 1233.52    -136.965287231348    -136.965287231348    -136.824659964996    -136.818780618760   0.0000   0.0000   0.0001   0.0113
   1170    0.003053042810425    0.0 1240.58    -136.966241673681    -136.966241673681    -136.824809553496    -136.818782753638   0.0000   0.0000   0.0001   0.0117

   writing restart file (with schema): ./h2o_52.save/
     restart      :      0.13s CPU      0.46s WALL (       7 calls)
   1171    0.003087298207267    0.0 1245.36    -136.966933465835    -136.966933465835    -136.824956126340    -136.818785346678   0.0000   0.0000   0.0001   0.0121
   1172    0.003116341790200    0.0 1247.49    -136.967320908189    -136.967320908189    -136.825100414476    -136.818788323164   0.0000   0.0000   0.0001   0.0125
   1173    0.003141439531883    0.0 1246.56    -136.967357933987    -136.967357933987    -136.825243290408    -136.818791532196   0.0000   0.0000   0.0001   0.0129
   1174    0.003161168580009    0.0 1242.17    -136.966996530861    -136.966996530861    -136.825382713847    -136.818794663009   0.0000   0.0000   0.0001   0.0133
   1175    0.003171543553891    0.0 1233.95    -136.966191061662    -136.966191061662    -136.825513776075    -136.818797164637   0.0000   0.0000   0.0001   0.0137
   1176    0.003168889589956    0.0 1221.63    -136.964904682545    -136.964904682545    -136.825632202075    -136.818798872767   0.0000   0.0000   0.0001   0.0141
   1177    0.003151746154332    0.0 1205.02    -136.963114275143    -136.963114275143    -136.825735482060    -136.818799231048   0.0000   0.0000   0.0001   0.0146
   1178    0.003121029292029    0.0 1184.10    -136.960817278948    -136.960817278948    -136.825823677222    -136.818797922165   0.0000   0.0000   0.0001   0.0150
   1179    0.003077859678637    0.0 1159.06    -136.958036421028    -136.958036421028    -136.825897174117    -136.818794773698   0.0000   0.0000   0.0001   0.0154
   1180    0.003021865885150    0.0 1130.37    -136.954822538906    -136.954822538906    -136.825954706774    -136.818789448411   0.0000   0.0000   0.0001   0.0159

   writing restart file (with schema): ./h2o_52.save/
     restart      :      0.15s CPU      0.49s WALL (       8 calls)
   1181    0.002952583461770    0.0 1098.73    -136.951256819589    -136.951256819589    -136.825995690292    -136.818782345146   0.0000   0.0000   0.0001   0.0164
   1182    0.002871346713560    0.0 1065.09    -136.947447035021    -136.947447035021    -136.826021353015    -136.818773805386   0.0000   0.0000   0.0001   0.0168
   1183    0.002782720369486    0.0 1030.53    -136.943522313721    -136.943522313721    -136.826036206211    -136.818764121288   0.0000   0.0000   0.0001   0.0173
   1184    0.002693504319604    0.0  996.26    -136.939626768505    -136.939626768505    -136.826047726515    -136.818754188967   0.0000   0.0000   0.0001   0.0178
   1185    0.002608876468384    0.0  963.52    -136.935908284778    -136.935908284778    -136.826061821243    -136.818744813088   0.0000   0.0000   0.0001   0.0183
   1186    0.002531057310693    0.0  933.51    -136.932506832614    -136.932506832614    -136.826081376462    -136.818736581872   0.0000   0.0000   0.0001   0.0188
   1187    0.002461818099328    0.0  907.28    -136.929544049726    -136.929544049726    -136.826109059182    -136.818730165876   0.0000   0.0000   0.0001   0.0192
   1188    0.002404069525820    0.0  885.61    -136.927113254234    -136.927113254234    -136.826148738746    -136.818726169850   0.0000   0.0000   0.0001   0.0197
   1189    0.002360511446414    0.0  868.98    -136.925271803007    -136.925271803007    -136.826203801739    -136.818724828064   0.0000   0.0000   0.0001   0.0202
   1190    0.002331804163082    0.0  857.52    -136.924037762412    -136.924037762412    -136.826275444977    -136.818726162060   0.0000   0.0000   0.0001   0.0207

   writing restart file (with schema): ./h2o_52.save/
     restart      :      0.16s CPU      0.56s WALL (       9 calls)
   1191    0.002316682946495    0.0  851.08    -136.923389881940    -136.923389881940    -136.826362524494    -136.818729753619   0.0000   0.0000   0.0001   0.0213
   1192    0.002313627300298    0.0  849.16    -136.923272033311    -136.923272033311    -136.826463540700    -136.818735099150   0.0000   0.0000   0.0001   0.0218
   1193    0.002320913364881    0.0  851.05    -136.923600335359    -136.923600335359    -136.826576708196    -136.818741661827   0.0000   0.0000   0.0001   0.0223
   1194    0.002335401089065    0.0  855.87    -136.924272448189    -136.924272448189    -136.826698536422    -136.818748691505   0.0000   0.0000   0.0001   0.0228
   1195    0.002352815094518    0.0  862.72    -136.925178621372    -136.925178621372    -136.826824581368    -136.818755711752   0.0000   0.0000   0.0001   0.0233
   1196    0.002369649138865    0.0  870.66    -136.926210850941    -136.926210850941    -136.826950690456    -136.818761867292   0.0000   0.0000   0.0001   0.0238
   1197    0.002384680027762    0.0  878.88    -136.927272854101    -136.927272854101    -136.827075385513    -136.818766792102   0.0000   0.0000   0.0001   0.0244
   1198    0.002396744486259    0.0  886.70    -136.928286100788    -136.928286100788    -136.827197381027    -136.818770341140   0.0000   0.0000   0.0001   0.0249
   1199    0.002402701285550    0.0  893.65    -136.929193395292    -136.929193395292    -136.827313067651    -136.818772093735   0.0000   0.0000   0.0001   0.0254

 * Physical Quantities at step:  1200

   from rhoofr: total integrated electronic density
   in g-space =     64.000000   in r-space =    64.000000


                total energy =     -136.92996250176 Hartree a.u.
              kinetic energy =       97.18392 Hartree a.u.
        electrostatic energy =     -185.18828 Hartree a.u.
                         esr =        0.01069 Hartree a.u.
                       eself =      242.55691 Hartree a.u.
      pseudopotential energy =       -9.28972 Hartree a.u.
  n-l pseudopotential energy =       -6.07102 Hartree a.u.
 exchange-correlation energy =      -33.56486 Hartree a.u.
           average potential =        0.00000 Hartree a.u.



   Eigenvalues (eV), kp =   1 , spin =  1

  -23.35  -23.00  -22.88  -22.78  -22.50  -22.38  -22.07  -21.19  -11.20  -11.07
  -10.95  -10.40  -10.11   -9.60   -9.36   -8.77   -8.19   -7.91   -7.79   -7.33
   -7.09   -6.58   -6.43   -5.71   -5.15   -4.98   -4.87   -4.73   -4.62   -4.49
   -4.32   -3.92


   CELL_PARAMETERS
   13.00000000    0.00000000    0.00000000
    0.00000000   13.00000000    0.00000000
    0.00000000    0.00000000   13.00000000

   System Density [g/cm^3] :              0.7351364820


   System Volume [A.U.^3] :           2197.0000000000


   Center of mass square displacement (a.u.):   0.000000

   ATOMIC_POSITIONS
   O       0.74899857866091E+01     0.32002838017143E+01     0.34939366926032E+01
   H       0.56909371993239E+01     0.38187348065410E+01     0.31591127576079E+01
   H       0.76525698193020E+01     0.15155330211351E+01     0.30638341474836E+01
   O       0.37048069913817E+01    -0.57422070360297E+01     0.20729875901736E+01
   H       0.48513925532043E+01    -0.39927212967171E+01     0.20937570497712E+01
   H       0.22209461975738E+01    -0.47793209873081E+01     0.20530487443738E+01
   O      -0.55818091672195E+01    -0.21938516330296E+01     0.33742250365704E+01
   H      -0.38149050658193E+01    -0.20443317473285E+01     0.29422205766510E+01
   H      -0.53351373627050E+01    -0.25280358866312E+01     0.52989529238066E+01
   O      -0.14172232350136E+01     0.59934020919820E+01     0.20858996927920E+01
   H      -0.27792797927220E+01     0.49049707468854E+01     0.28288946548258E+01
   H      -0.56427028005354E+00     0.48674098854714E+01     0.61138030409442E+00
   O       0.12622379687079E+01    -0.52114573662440E+01    -0.34648150875636E+01
   H       0.20108879330405E+01    -0.42451310484446E+01    -0.17940380123122E+01
   H       0.22628577381021E+01    -0.38568934123496E+01    -0.43647451712373E+01
   O      -0.51200728700648E+01    -0.39493296608911E+01    -0.49105625442453E+01
   H      -0.49451863323811E+01    -0.24029571653022E+01    -0.36799220212719E+01
   H      -0.46043237233380E+01    -0.57382643128809E+01    -0.40233448378164E+01
   O      -0.43840253712408E+01     0.53151581173860E+01    -0.19112675949358E+01
   H      -0.30783000605325E+01     0.59483624723474E+01    -0.31905655690508E+00
   H      -0.53913576591433E+01     0.40703063942146E+01    -0.12498557997962E+01
   O       0.40234941505438E+01     0.25167192687568E+01    -0.35253154122620E+01
   H       0.26484181542880E+01     0.16421142942573E+01    -0.24640542548894E+01
   H       0.35336076525213E+01     0.39518034222376E+01    -0.42801564174455E+01

   ATOMIC_VELOCITIES
   O       0.59082694762039E-03     0.37805919603412E-04     0.42349128671115E-04
   H      -0.61673898256115E-03    -0.32078781726313E-03    -0.10972758945935E-02
   H       0.72901852333377E-03     0.28285503304378E-03     0.13765575024912E-02
   O       0.17029365472114E-03    -0.28439253074853E-03     0.17619633177335E-03
   H      -0.12360412639712E-02    -0.71229826217610E-03     0.62038352425218E-03
   H      -0.36282908356163E-02     0.18059074068189E-02    -0.10840617586166E-02
   O      -0.17401956733210E-03     0.28314553979045E-03    -0.18935725605612E-04
   H       0.21359265653304E-02    -0.15973715331272E-02    -0.15405974548717E-02
   H      -0.56361322133575E-03    -0.13241605087290E-03    -0.10929960627739E-02
   O       0.15032681221770E-03     0.11623362449396E-03     0.10556251505489E-03
   H       0.16488914129849E-02    -0.14718512217450E-03    -0.39626037314229E-03
   H      -0.41369486750228E-03    -0.43043409468098E-03     0.89300444457847E-04
   O      -0.27519095777157E-03     0.39087090814932E-04    -0.18588778781080E-03
   H       0.32817074434756E-03     0.81709771327160E-03     0.17120978348721E-02
   H      -0.12091905694307E-02    -0.16484964965718E-02     0.89333381379331E-03
   O      -0.27426425078799E-03     0.64456247182109E-03    -0.22105777762662E-03
   H       0.22476518187832E-03    -0.83392349013809E-03    -0.15325365244337E-03
   H       0.10664941155235E-02    -0.16156591677571E-02     0.43855351022735E-03
   O      -0.22679576052046E-03     0.77881478117658E-04    -0.18892840690100E-03
   H      -0.38919113105247E-03    -0.81054408862260E-03     0.17536473481831E-03
   H       0.82140088853979E-03    -0.30657556382305E-02     0.31740123816587E-02
   O      -0.90153602961335E-04    -0.19456808935056E-03     0.13048971078770E-03
   H       0.24101625066019E-02    -0.72364071004279E-03    -0.15682425879059E-02
   H       0.73938365346706E-03    -0.22931717440634E-02     0.99638415337194E-03



   Partial temperatures (for each ionic specie) 
   Species  Temp (K)   Mean Square Displacement (a.u.)
        1   5.60E+02     4.6017E+00
        2   1.07E+03     8.6865E+00

  nfi     ekinc              temph  tempp     etot                 enthal               econs                econt              vnhh    xnhh0   vnhp    xnhp0
   1200    0.002400244752931    0.0  899.45    -136.929962501756    -136.929962501756    -136.827420223141    -136.818772228771   0.0000   0.0000   0.0001   0.0260

   writing restart file (with schema): ./h2o_52.save/
     restart      :      0.18s CPU      0.59s WALL (      10 calls)
   1201    0.002391068970228    0.0  904.03    -136.930584515842    -136.930584515842    -136.827520772882    -136.818771099972   0.0000   0.0000   0.0001   0.0265
   1202    0.002380060347541    0.0  907.41    -136.931069670208    -136.931069670208    -136.827619772652    -136.818769007984   0.0000   0.0000   0.0001   0.0270
   1203    0.002371290208125    0.0  909.79    -136.931442922719    -136.931442922719    -136.827721591118    -136.818766373228   0.0000   0.0000   0.0001   0.0276
   1204    0.002364894222931    0.0  911.46    -136.931738310819    -136.931738310819    -136.827826749072    -136.818763679386   0.0000   0.0000   0.0001   0.0281
   1205    0.002358575400208    0.0  912.76    -136.931992571527    -136.931992571527    -136.827933085244    -136.818761124604   0.0000   0.0000   0.0001   0.0287
   1206    0.002351491226793    0.0  913.99    -136.932240284508    -136.932240284508    -136.828040119664    -136.818759094967   0.0000   0.0000   0.0001   0.0292
   1207    0.002344750164117    0.0  915.39    -136.932508610472    -136.932508610472    -136.828149235346    -136.818757855200   0.0000   0.0000   0.0001   0.0298
   1208    0.002339300700517    0.0  917.08    -136.932813846665    -136.932813846665    -136.828261424603    -136.818757415616   0.0000   0.0000   0.0001   0.0304
   1209    0.002335074161318    0.0  919.11    -136.933160543294    -136.933160543294    -136.828376839496    -136.818757950969   0.0000   0.0000   0.0001   0.0309
   1210    0.002331786733159    0.0  921.41    -136.933540895179    -136.933540895179    -136.828494921355    -136.818759140462   0.0000   0.0000   0.0001   0.0315

   writing restart file (with schema): ./h2o_52.save/
     restart      :      0.20s CPU      0.67s WALL (      11 calls)
   1211    0.002329813611653    0.0  923.83    -136.933937765762    -136.933937765762    -136.828615922402    -136.818760827971   0.0000   0.0000   0.0001   0.0321
   1212    0.002328629030378    0.0  926.17    -136.934327499868    -136.934327499868    -136.828739177584    -136.818762863740   0.0000   0.0000   0.0001   0.0327
   1213    0.002326019555699    0.0  928.21    -136.934683141052    -136.934683141052    -136.828861916519    -136.818764708108   0.0000   0.0000   0.0001   0.0333
   1214    0.002320663737440    0.0  929.76    -136.934979872109    -136.934979872109    -136.828982674712    -136.818766264562   0.0000   0.0000   0.0001   0.0338
   1215    0.002313695279139    0.0  930.62    -136.935197944788    -136.935197944788    -136.829102203686    -136.818767225777   0.0000   0.0000   0.0001   0.0344
   1216    0.002307104146233    0.0  930.69    -136.935326308239    -136.935326308239    -136.829222285069    -136.818767481467   0.0000   0.0000   0.0001   0.0350
   1217    0.002300317119731    0.0  929.98    -136.935364527188    -136.935364527188    -136.829342349018    -136.818767144678   0.0000   0.0000   0.0001   0.0356
   1218    0.002289701633921    0.0  928.59    -136.935322552241    -136.935322552241    -136.829458489859    -136.818766047666   0.0000   0.0000   0.0001   0.0362
   1219    0.002272883704355    0.0  926.74    -136.935221220599    -136.935221220599    -136.829568393308    -136.818764336676   0.0000   0.0000   0.0001   0.0368
   1220    0.002251608419528    0.0  924.66    -136.935090199696    -136.935090199696    -136.829674120228    -136.818762385702   0.0000   0.0000   0.0001   0.0374

   writing restart file (with schema): ./h2o_52.save/
     restart      :      0.22s CPU      0.82s WALL (      12 calls)
   1221    0.002229644080223    0.0  922.63    -136.934963884330    -136.934963884330    -136.829779598028    -136.818760377851   0.0000   0.0000   0.0001   0.0381
   1222    0.002209920731848    0.0  920.93    -136.934878488332    -136.934878488332    -136.829887718095    -136.818758259154   0.0000   0.0000   0.0001   0.0387
   1223    0.002193941032505    0.0  919.87    -136.934870387744    -136.934870387744    -136.830000516339    -136.818756504169   0.0000   0.0000   0.0001   0.0393
   1224    0.002181854417126    0.0  919.72    -136.934971549909    -136.934971549909    -136.830118469468    -136.818755337514   0.0000   0.0000   0.0001   0.0399
   1225    0.002173130182702    0.0  920.71    -136.935206698220    -136.935206698220    -136.830241173615    -136.818754743605   0.0000   0.0000   0.0001   0.0406
   1226    0.002167346261746    0.0  922.98    -136.935592487102    -136.935592487102    -136.830368434516    -136.818754775963   0.0000   0.0000   0.0001   0.0412
   1227    0.002164768628242    0.0  926.59    -136.936137014407    -136.936137014407    -136.830500439256    -136.818755159538   0.0000   0.0000   0.0001   0.0418
   1228    0.002166730060134    0.0  931.56    -136.936841633844    -136.936841633844    -136.830638801202    -136.818755967239   0.0000   0.0000   0.0001   0.0425
   1229    0.002174179600493    0.0  937.83    -136.937701588973    -136.937701588973    -136.830784508528    -136.818757027578   0.0000   0.0000   0.0001   0.0431
   1230    0.002186262376286    0.0  945.32    -136.938708218566    -136.938708218566    -136.830936786765    -136.818758212405   0.0000   0.0000   0.0001   0.0438

   writing restart file (with schema): ./h2o_52.save/
     restart      :      0.24s CPU      0.91s WALL (      13 calls)
   1231    0.002200869862106    0.0  953.97    -136.939851057964    -136.939851057964    -136.831093544440    -136.818759334199   0.0000   0.0000   0.0001   0.0444
   1232    0.002217115134382    0.0  963.70    -136.941120175045    -136.941120175045    -136.831253823672    -136.818760122342   0.0000   0.0000   0.0001   0.0451
   1233    0.002236521678968    0.0  974.42    -136.942508586495    -136.942508586495    -136.831419575623    -136.818760810380   0.0000   0.0000   0.0001   0.0457
   1234    0.002260587188594    0.0  986.09    -136.944011603759    -136.944011603759    -136.831592367277    -136.818761277449   0.0000   0.0000   0.0001   0.0464
   1235    0.002288769339690    0.0  998.69    -136.945627652367    -136.945627652367    -136.831771813877    -136.818761489895   0.0000   0.0000   0.0001   0.0471
   1236    0.002318900290846    0.0 1012.25    -136.947358137324    -136.947358137324    -136.831956083668    -136.818761585038   0.0000   0.0000   0.0001   0.0477
   1237    0.002349041161256    0.0 1026.81    -136.949205765462    -136.949205765462    -136.832143511913    -136.818761626549   0.0000   0.0000   0.0001   0.0484
   1238    0.002379160017575    0.0 1042.40    -136.951173130491    -136.951173130491    -136.832334508329    -136.818761834062   0.0000   0.0000   0.0001   0.0491
   1239    0.002410988624894    0.0 1058.98    -136.953260448789    -136.953260448789    -136.832531171515    -136.818762344620   0.0000   0.0000   0.0001   0.0498
   1240    0.002447023239937    0.0 1076.51    -136.955463642458    -136.955463642458    -136.832736224167    -136.818763152967   0.0000   0.0000   0.0001   0.0505

   writing restart file (with schema): ./h2o_52.save/
     restart      :      0.26s CPU      1.00s WALL (      14 calls)
   1241    0.002489613822338    0.0 1094.87    -136.957773293737    -136.957773293737    -136.832952287818    -136.818764304100   0.0000   0.0000   0.0001   0.0512
   1242    0.002539314787255    0.0 1113.92    -136.960173272428    -136.960173272428    -136.833180408143    -136.818766075425   0.0000   0.0000   0.0001   0.0519
   1243    0.002593629710684    0.0 1133.46    -136.962638490593    -136.962638490593    -136.833418223246    -136.818768408634   0.0000   0.0000   0.0001   0.0526
   1244    0.002648968057660    0.0 1153.22    -136.965135052005    -136.965135052005    -136.833662294186    -136.818771294209   0.0000   0.0000   0.0001   0.0533
   1245    0.002703687534296    0.0 1172.83    -136.967620322175    -136.967620322175    -136.833911196415    -136.818774835692   0.0000   0.0000   0.0001   0.0540
   1246    0.002758701256642    0.0 1191.85    -136.970042510997    -136.970042510997    -136.834165676728    -136.818778818334   0.0000   0.0000   0.0001   0.0547
   1247    0.002815102980453    0.0 1209.73    -136.972342416800    -136.972342416800    -136.834426790464    -136.818783238955   0.0000   0.0000   0.0001   0.0555
   1248    0.002870791811509    0.0 1225.93    -136.974454647571    -136.974454647571    -136.834692220478    -136.818788012986   0.0000   0.0000   0.0001   0.0562
   1249    0.002920592434730    0.0 1239.88    -136.976309408853    -136.976309408853    -136.834956493789    -136.818793079582   0.0000   0.0000   0.0001   0.0569
   1250    0.002960502890975    0.0 1250.99    -136.977834412633    -136.977834412633    -136.835214934454    -136.818798116221   0.0000   0.0000   0.0002   0.0577

   writing restart file (with schema): ./h2o_52.save/
     restart      :      0.28s CPU      1.03s WALL (      15 calls)
   1251    0.002991452266847    0.0 1258.63    -136.978958475075    -136.978958475075    -136.835467647911    -136.818802777114   0.0000   0.0000   0.0002   0.0584
   1252    0.003017362556163    0.0 1262.20    -136.979615678708    -136.979615678708    -136.835717785273    -136.818806903512   0.0000   0.0000   0.0002   0.0592
   1253    0.003039262401959    0.0 1261.20    -136.979749141393    -136.979749141393    -136.835965257896    -136.818810119891   0.0000   0.0000   0.0002   0.0600
   1254    0.003052726858428    0.0 1255.31    -136.979316252718    -136.979316252718    -136.836204548890    -136.818812186167   0.0000   0.0000   0.0002   0.0608
   1255    0.003051295252332    0.0 1244.38    -136.978293216459    -136.978293216459    -136.836427831839    -136.818812669780   0.0000   0.0000   0.0002   0.0616
   1256    0.003031984867559    0.0 1228.45    -136.976680108291    -136.976680108291    -136.836630914305    -136.818811343553   0.0000   0.0000   0.0002   0.0623
   1257    0.002996788835418    0.0 1207.75    -136.974504369808    -136.974504369808    -136.836814617580    -136.818808031859   0.0000   0.0000   0.0002   0.0631
   1258    0.002949704205722    0.0 1182.76    -136.971823143083    -136.971823143083    -136.836981977423    -136.818802739069   0.0000   0.0000   0.0002   0.0640
   1259    0.002893436449702    0.0 1154.23    -136.968723411202    -136.968723411202    -136.837134956813    -136.818795603901   0.0000   0.0000   0.0002   0.0648
   1260    0.002829203556039    0.0 1123.16    -136.965320022650    -136.965320022650    -136.837274131823    -136.818786723326   0.0000   0.0000   0.0002   0.0656

   writing restart file (with schema): ./h2o_52.save/
     restart      :      0.30s CPU      1.11s WALL (      16 calls)
   1261    0.002758545877067    0.0 1090.75    -136.961752147385    -136.961752147385    -136.837401094525    -136.818776692141   0.0000   0.0000   0.0002   0.0664
   1262    0.002684170990993    0.0 1058.34    -136.958175463596    -136.958175463596    -136.837518719092    -136.818765981524   0.0000   0.0000   0.0002   0.0672
   1263    0.002610211314698    0.0 1027.33    -136.954753508634    -136.954753508634    -136.837631964150    -136.818755455987   0.0000   0.0000   0.0002   0.0681
   1264    0.002541687568760    0.0  999.07    -136.951646130937    -136.951646130937    -136.837746872504    -136.818745899841   0.0000   0.0000   0.0002   0.0689
   1265    0.002483658397990    0.0  974.77    -136.948998060476    -136.948998060476    -136.837869623930    -136.818737930141   0.0000   0.0000   0.0002   0.0697
   1266    0.002440052063482    0.0  955.42    -136.946928608654    -136.946928608654    -136.838005593668    -136.818732252176   0.0000   0.0000   0.0002   0.0706
   1267    0.002412548403587    0.0  941.75    -136.945521803139    -136.945521803139    -136.838157768646    -136.818729239475   0.0000   0.0000   0.0002   0.0714
   1268    0.002400806745143    0.0  934.10    -136.944819850653    -136.944819850653    -136.838327352416    -136.818729371518   0.0000   0.0000   0.0002   0.0723
   1269    0.002403551284242    0.0  932.46    -136.944818802482    -136.944818802482    -136.838513890285    -136.818732345566   0.0000   0.0000   0.0002   0.0731
   1270    0.002420070503800    0.0  936.39    -136.945471021204    -136.945471021204    -136.838717441903    -136.818737826744   0.0000   0.0000   0.0002   0.0740

   writing restart file (with schema): ./h2o_52.save/
     restart      :      0.32s CPU      1.24s WALL (      17 calls)
   1271    0.002449541427943    0.0  945.15    -136.946689941364    -136.946689941364    -136.838937755833    -136.818745371362   0.0000   0.0000   0.0002   0.0748
   1272    0.002489164089013    0.0  957.72    -136.948357191612    -136.948357191612    -136.839172097883    -136.818754182065   0.0000   0.0000   0.0002   0.0757
   1273    0.002534133436367    0.0  972.92    -136.950333544895    -136.950333544895    -136.839415663739    -136.818763593808   0.0000   0.0000   0.0002   0.0765
   1274    0.002579406640074    0.0  989.49    -136.952470442352    -136.952470442352    -136.839662945430    -136.818772701427   0.0000   0.0000   0.0002   0.0774
   1275    0.002621788185333    0.0 1006.20    -136.954622368498    -136.954622368498    -136.839910443910    -136.818780999274   0.0000   0.0000   0.0002   0.0783
   1276    0.002659629087784    0.0 1021.88    -136.956655753743    -136.956655753743    -136.840155995183    -136.818788004261   0.0000   0.0000   0.0002   0.0791
   1277    0.002691191867755    0.0 1035.56    -136.958456203889    -136.958456203889    -136.840397205846    -136.818793306782   0.0000   0.0000   0.0002   0.0800
   1278    0.002714098151961    0.0 1046.47    -136.959934209472    -136.959934209472    -136.840631090725    -136.818796727722   0.0000   0.0000   0.0002   0.0809
   1279    0.002726139602157    0.0 1054.10    -136.961028092580    -136.961028092580    -136.840854940963    -136.818798334428   0.0000   0.0000   0.0002   0.0818
   1280    0.002726341041882    0.0 1058.17    -136.961703847896    -136.961703847896    -136.841067256617    -136.818798266612   0.0000   0.0000   0.0002   0.0826

   writing restart file (with schema): ./h2o_52.save/
     restart      :      0.33s CPU      1.35s WALL (      18 calls)
   1281    0.002715448784399    0.0 1058.59    -136.961953159764    -136.961953159764    -136.841268231791    -136.818796691014   0.0000   0.0000   0.0002   0.0835
   1282    0.002695243289743    0.0 1055.48    -136.961790087096    -136.961790087096    -136.841459480683    -136.818794175761   0.0000   0.0000   0.0002   0.0844
   1283    0.002667613328192    0.0 1049.10    -136.961245456714    -136.961245456714    -136.841642193312    -136.818790737346   0.0000   0.0000   0.0002   0.0853
   1284    0.002635104966852    0.0 1039.83    -136.960364238545    -136.960364238545    -136.841818627761    -136.818786754968   0.0000   0.0000   0.0002   0.0862
   1285    0.002599952923985    0.0 1028.11    -136.959200816792    -136.959200816792    -136.841990872930    -136.818782678841   0.0000   0.0000   0.0002   0.0871
   1286    0.002562170040305    0.0 1014.47    -136.957813781201    -136.957813781201    -136.842158413828    -136.818778487933   0.0000   0.0000   0.0002   0.0880
   1287    0.002520068255377    0.0  999.47    -136.956263877164    -136.956263877164    -136.842319353218    -136.818774377699   0.0000   0.0000   0.0002   0.0889
   1288    0.002472637605134    0.0  983.63    -136.954611611142    -136.954611611142    -136.842472411422    -136.818770374922   0.0000   0.0000   0.0002   0.0898
   1289    0.002421772426356    0.0  967.47    -136.952915992134    -136.952915992134    -136.842619575549    -136.818766762604   0.0000   0.0000   0.0002   0.0907
   1290    0.002371440916388    0.0  951.43    -136.951232251123    -136.951232251123    -136.842764730703    -136.818763548414   0.0000   0.0000   0.0002   0.0916

   writing restart file (with schema): ./h2o_52.save/
     restart      :      0.35s CPU      1.43s WALL (      19 calls)
   1291    0.002324897154677    0.0  935.93    -136.949611404523    -136.949611404523    -136.842910906757    -136.818760505556   0.0000   0.0000   0.0002   0.0925
   1292    0.002282708855364    0.0  921.38    -136.948101345862    -136.948101345862    -136.843058907259    -136.818757776198   0.0000   0.0000   0.0002   0.0934
   1293    0.002242925849817    0.0  908.19    -136.946745792529    -136.946745792529    -136.843207033122    -136.818755427781   0.0000   0.0000   0.0002   0.0944
   1294    0.002203998959404    0.0  896.71    -136.945583408299    -136.945583408299    -136.843354000743    -136.818753457888   0.0000   0.0000   0.0002   0.0953
   1295    0.002167443354128    0.0  887.20    -136.944647449900    -136.944647449900    -136.843501610985    -136.818751812082   0.0000   0.0000   0.0002   0.0962
   1296    0.002136733737156    0.0  879.89    -136.943965506617    -136.943965506617    -136.843653916902    -136.818750671261   0.0000   0.0000   0.0002   0.0971
   1297    0.002113555415239    0.0  874.91    -136.943557808952    -136.943557808952    -136.843813104911    -136.818750094087   0.0000   0.0000   0.0002   0.0980
   1298    0.002096613923745    0.0  872.40    -136.943436293345    -136.943436293345    -136.843978304537    -136.818750027087   0.0000   0.0000   0.0002   0.0989
   1299    0.002083992425114    0.0  872.38    -136.943604301564    -136.943604301564    -136.844148257379    -136.818750628733   0.0000   0.0000   0.0002   0.0998

 * Physical Quantities at step:  1300

   from rhoofr: total integrated electronic density
   in g-space =     64.000000   in r-space =    64.000000


                total energy =     -136.94405516075 Hartree a.u.
              kinetic energy =       97.55514 Hartree a.u.
        electrostatic energy =     -185.28850 Hartree a.u.
                         esr =        0.01295 Hartree a.u.
                       eself =      242.55691 Hartree a.u.
      pseudopotential energy =       -9.33941 Hartree a.u.
  n-l pseudopotential energy =       -6.23481 Hartree a.u.
 exchange-correlation energy =      -33.63648 Hartree a.u.
           average potential =        0.00000 Hartree a.u.



   Eigenvalues (eV), kp =   1 , spin =  1

  -24.25  -23.63  -22.97  -22.70  -22.52  -22.24  -21.72  -21.68  -12.29  -11.02
  -10.68  -10.40  -10.28  -10.10  -10.03   -9.50   -8.57   -8.21   -7.56   -7.49
   -7.04   -6.30   -6.12   -5.82   -5.53   -5.11   -4.99   -4.74   -4.68   -4.54
   -4.49   -4.19


   CELL_PARAMETERS
   13.00000000    0.00000000    0.00000000
    0.00000000   13.00000000    0.00000000
    0.00000000    0.00000000   13.00000000

   System Density [g/cm^3] :              0.7351364820


   System Volume [A.U.^3] :           2197.0000000000


   Center of mass square displacement (a.u.):   0.000000

   ATOMIC_POSITIONS
   O       0.77569973444187E+01     0.32194816790570E+01     0.35008694668571E+01
   H       0.60831519090550E+01     0.37379011680792E+01     0.27959485834260E+01
   H       0.75344184771752E+01     0.14766274263755E+01     0.39458367965100E+01
   O       0.36937807814304E+01    -0.57793772974461E+01     0.21185641437772E+01
   H       0.49351703240999E+01    -0.44768778603389E+01     0.25784486957695E+01
   H       0.15725213398036E+01    -0.55255971036215E+01     0.22746827768756E+01
   O      -0.55663527194890E+01    -0.20234616131591E+01     0.33331423524722E+01
   H      -0.42300649659514E+01    -0.32300876181193E+01     0.24334205685207E+01
   H      -0.55994940301544E+01    -0.28967226054646E+01     0.50123861122608E+01
   O      -0.13270925879882E+01     0.60261136207722E+01     0.20964846360888E+01
   H      -0.25234643000712E+01     0.49943674582371E+01     0.30657618890643E+01
   H      -0.30759908576978E+00     0.48651747156169E+01     0.11191583618926E+01
   O       0.11389720291958E+01    -0.51400413360218E+01    -0.34734234971765E+01
   H       0.18993555393996E+01    -0.51233033385833E+01    -0.16058947778447E+01
   H       0.20533681969604E+01    -0.44683102915171E+01    -0.47594131631533E+01
   O      -0.52356203824167E+01    -0.36796971443761E+01    -0.50111814391480E+01
   H      -0.48239656782237E+01    -0.26522675532202E+01    -0.37072515877940E+01
   H      -0.48690028521197E+01    -0.56197801226107E+01    -0.41068067633993E+01
   O      -0.44841593052744E+01     0.52702834148322E+01    -0.19333813620803E+01
   H      -0.34045457401740E+01     0.62627275639751E+01    -0.50527422377093E+00
   H      -0.51789608455182E+01     0.35586490785032E+01    -0.10605966870974E+01
   O       0.40920867904229E+01     0.23507991145611E+01    -0.34660731434008E+01
   H       0.27700806443506E+01     0.14357925029467E+01    -0.30190914920328E+01
   H       0.29998444367156E+01     0.37867120252226E+01    -0.37901729514017E+01

   ATOMIC_VELOCITIES
   O       0.42511004144372E-03     0.41935279834540E-04    -0.69016811018618E-04
   H       0.23417503875934E-02     0.57117865567837E-03     0.21462091412253E-03
   H      -0.33055730100044E-03    -0.83579531936683E-03     0.23974103159610E-02
   O       0.19083195852678E-03    -0.86148926755841E-04     0.48562883244582E-04
   H      -0.28016901478831E-02    -0.13877181351734E-02     0.25427048912808E-03
   H      -0.17508143212821E-02    -0.49790481982468E-03     0.21801527449232E-02
   O       0.89550866765470E-04     0.18719193343977E-03    -0.62772901078034E-04
   H      -0.19025110342713E-02    -0.14082823365147E-02    -0.34498050651061E-03
   H       0.93490521677780E-04     0.38762685045489E-03    -0.10885005007760E-02
   O       0.24772356315320E-03    -0.61120841256385E-04    -0.73742962849199E-04
   H       0.28826318148114E-03     0.78786179762999E-03     0.32631855067001E-03
   H      -0.62964403938917E-03     0.15114262834742E-02     0.26255212833370E-02
   O      -0.39357494288812E-03     0.14119267368262E-04     0.15848469600358E-03
   H       0.11099335013078E-02    -0.78213297781278E-03    -0.29412619235571E-02
   H       0.16705331146877E-02    -0.35022425653736E-03    -0.34903339740271E-03
   O      -0.21063922980449E-03     0.57227146298736E-03    -0.10678116294013E-03
   H      -0.30132308979015E-03     0.14984429602518E-03    -0.16570999540683E-02
   H      -0.10701982952776E-02    -0.14673827431521E-02    -0.37228953045305E-03
   O      -0.28585044294188E-04     0.53958369873319E-04     0.72497080552875E-04
   H      -0.16445214924160E-02    -0.52905243111783E-03    -0.23941871016817E-02
   H      -0.11400465988207E-02    -0.17462063432106E-02    -0.18089524287812E-03
   O       0.15507474056720E-03    -0.42120749736521E-03     0.13213771749205E-03
   H       0.27666492809931E-03    -0.93663634017501E-03    -0.12602720165638E-02
   H      -0.17575694729816E-02     0.17551611195399E-02     0.10127909809095E-02



   Partial temperatures (for each ionic specie) 
   Species  Temp (K)   Mean Square Displacement (a.u.)
        1   4.38E+02     5.0806E+00
        2   1.09E+03     8.4796E+00

  nfi     ekinc              temph  tempp     etot                 enthal               econs                econt              vnhh    xnhh0   vnhp    xnhp0
   1300    0.002075185597197    0.0  874.80    -136.944055160752    -136.944055160752    -136.844323018079    -136.818751954648   0.0000   0.0000   0.0002   0.1008

   writing restart file (with schema): ./h2o_52.save/
     restart      :      0.37s CPU      1.50s WALL (      20 calls)
   1301    0.002070779666601    0.0  879.50    -136.944771569415    -136.944771569415    -136.844503680621    -136.818754025254   0.0000   0.0000   0.0002   0.1017
   1302    0.002071211015266    0.0  886.23    -136.945725985982    -136.945725985982    -136.844690895063    -136.818756603970   0.0000   0.0000   0.0002   0.1026
   1303    0.002076352818734    0.0  894.68    -136.946882623714    -136.946882623714    -136.844885000240    -136.818759760009   0.0000   0.0000   0.0002   0.1035
   1304    0.002085428090485    0.0  904.46    -136.948198046894    -136.948198046894    -136.845085282891    -136.818763228373   0.0000   0.0000   0.0002   0.1044
   1305    0.002097441766361    0.0  915.16    -136.949623816555    -136.949623816555    -136.845290793868    -136.818766805116   0.0000   0.0000   0.0002   0.1053
   1306    0.002111231176154    0.0  926.35    -136.951109165864    -136.951109165864    -136.845500473572    -136.818770429600   0.0000   0.0000   0.0002   0.1062
   1307    0.002125504551951    0.0  937.59    -136.952603181405    -136.952603181405    -136.845712792112    -136.818773788925   0.0000   0.0000   0.0002   0.1072
   1308    0.002139321013251    0.0  948.48    -136.954058309524    -136.954058309524    -136.845926836200    -136.818776923197   0.0000   0.0000   0.0002   0.1081
   1309    0.002151617845511    0.0  958.65    -136.955431918235    -136.955431918235    -136.846141154272    -136.818779537082   0.0000   0.0000   0.0002   0.1090
   1310    0.002161120545614    0.0  967.81    -136.956689170980    -136.956689170980    -136.846354160087    -136.818781482295   0.0000   0.0000   0.0002   0.1099

   writing restart file (with schema): ./h2o_52.save/
     restart      :      0.39s CPU      1.62s WALL (      21 calls)
   1311    0.002166918543672    0.0  975.74    -136.957804661757    -136.957804661757    -136.846564730695    -136.818782765409   0.0000   0.0000   0.0002   0.1108
   1312    0.002168974650856    0.0  982.32    -136.958762595823    -136.958762595823    -136.846772604871    -136.818783421458   0.0000   0.0000   0.0002   0.1118
   1313    0.002168272229814    0.0  987.49    -136.959557009827    -136.959557009827    -136.846978411532    -136.818783379541   0.0000   0.0000   0.0002   0.1127
   1314    0.002166154667770    0.0  991.27    -136.960192681099    -136.960192681099    -136.847183248832    -136.818782685102   0.0000   0.0000   0.0002   0.1136
   1315    0.002163121612513    0.0  993.79    -136.960684907378    -136.960684907378    -136.847387476113    -136.818781475803   0.0000   0.0000   0.0002   0.1145
   1316    0.002158523313276    0.0  995.29    -136.961057997955    -136.961057997955    -136.847590173395    -136.818779726422   0.0000   0.0000   0.0002   0.1154
   1317    0.002151997903141    0.0  996.04    -136.961344515259    -136.961344515259    -136.847790643505    -136.818777296071   0.0000   0.0000   0.0002   0.1164
   1318    0.002144774350853    0.0  996.40    -136.961585442471    -136.961585442471    -136.847990098377    -136.818774297130   0.0000   0.0000   0.0002   0.1173
   1319    0.002138788235046    0.0  996.78    -136.961828964848    -136.961828964848    -136.848190747917    -136.818771055429   0.0000   0.0000   0.0002   0.1182
   1320    0.002135177413332    0.0  997.62    -136.962127716403    -136.962127716403    -136.848393884800    -136.818767687365   0.0000   0.0000   0.0002   0.1191

   writing restart file (with schema): ./h2o_52.save/
     restart      :      0.41s CPU      1.71s WALL (      22 calls)
   1321    0.002134732418186    0.0  999.39    -136.962536639236    -136.962536639236    -136.848600528843    -136.818764285131   0.0000   0.0000   0.0002   0.1201
   1322    0.002138983848086    0.0 1002.56    -136.963110328014    -136.963110328014    -136.848812716852    -136.818761116593   0.0000   0.0000   0.0002   0.1210
   1323    0.002149862924473    0.0 1007.55    -136.963898938518    -136.963898938518    -136.849033011378    -136.818758477954   0.0000   0.0000   0.0002   0.1219
   1324    0.002168555742500    0.0 1014.69    -136.964943701366    -136.964943701366    -136.849263430884    -136.818756780713   0.0000   0.0000   0.0002   0.1228
   1325    0.002195141985795    0.0 1024.23    -136.966271777058    -136.966271777058    -136.849504773145    -136.818756254842   0.0000   0.0000   0.0002   0.1238
   1326    0.002229703325733    0.0 1036.22    -136.967892272213    -136.967892272213    -136.849757849893    -136.818757102693   0.0000   0.0000   0.0002   0.1247
   1327    0.002272644509461    0.0 1050.56    -136.969792817018    -136.969792817018    -136.850023948574    -136.818759676116   0.0000   0.0000   0.0002   0.1256
   1328    0.002323391143220    0.0 1066.91    -136.971936315280    -136.971936315280    -136.850302913609    -136.818763901713   0.0000   0.0000   0.0002   0.1265
   1329    0.002380095153967    0.0 1084.76    -136.974261322517    -136.974261322517    -136.850593114734    -136.818769587019   0.0000   0.0000   0.0002   0.1275
   1330    0.002440537367804    0.0 1103.39    -136.976684437945    -136.976684437945    -136.850892312776    -136.818776426046   0.0000   0.0000   0.0002   0.1284

   writing restart file (with schema): ./h2o_52.save/
     restart      :      0.43s CPU      1.79s WALL (      23 calls)
   1331    0.002502625280898    0.0 1121.93    -136.979104492461    -136.979104492461    -136.851198186762    -136.818784067146   0.0000   0.0000   0.0002   0.1293
   1332    0.002563707668142    0.0 1139.43    -136.981408258848    -136.981408258848    -136.851507701799    -136.818792196584   0.0000   0.0000   0.0002   0.1303
   1333    0.002619906440994    0.0 1154.87    -136.983476827754    -136.983476827754    -136.851816164912    -136.818800281059   0.0000   0.0000   0.0002   0.1312
   1334    0.002667394543400    0.0 1167.27    -136.985193532212    -136.985193532212    -136.852118614530    -136.818807685606   0.0000   0.0000   0.0002   0.1321
   1335    0.002703912060410    0.0 1175.74    -136.986452213361    -136.986452213361    -136.852411631764    -136.818813963216   0.0000   0.0000   0.0002   0.1331
   1336    0.002728143072958    0.0 1179.52    -136.987164055102    -136.987164055102    -136.852692530942    -136.818818649496   0.0000   0.0000   0.0002   0.1340
   1337    0.002738427970012    0.0 1178.07    -136.987263926716    -136.987263926716    -136.852958311297    -136.818821468016   0.0000   0.0000   0.0002   0.1349
   1338    0.002732887588434    0.0 1171.08    -136.986714786045    -136.986714786045    -136.853205774843    -136.818822277455   0.0000   0.0000   0.0002   0.1359
   1339    0.002710877570266    0.0 1158.52    -136.985510131730    -136.985510131730    -136.853432973777    -136.818821011095   0.0000   0.0000   0.0002   0.1368
   1340    0.002673635162479    0.0 1140.61    -136.983675004789    -136.983675004789    -136.853639998701    -136.818817761411   0.0000   0.0000   0.0002   0.1378

   writing restart file (with schema): ./h2o_52.save/
     restart      :      0.45s CPU      1.86s WALL (      24 calls)
   1341    0.002623100014459    0.0 1117.82    -136.981265079365    -136.981265079365    -136.853827718343    -136.818812639630   0.0000   0.0000   0.0002   0.1387
   1342    0.002561172484568    0.0 1090.89    -136.978364447963    -136.978364447963    -136.853997151153    -136.818805829217   0.0000   0.0000   0.0002   0.1397
   1343    0.002490499843424    0.0 1060.75    -136.975081678106    -136.975081678106    -136.854150517850    -136.818797797594   0.0000   0.0000   0.0002   0.1406
   1344    0.002414795613701    0.0 1028.48    -136.971543196406    -136.971543196406    -136.854291389481    -136.818789081148   0.0000   0.0000   0.0002   0.1416
   1345    0.002337941537972    0.0  995.24    -136.967885848515    -136.967885848515    -136.854423603524    -136.818780068634   0.0000   0.0000   0.0002   0.1425
   1346    0.002263108999178    0.0  962.23    -136.964250049450    -136.964250049450    -136.854550681006    -136.818771279306   0.0000   0.0000   0.0002   0.1434
   1347    0.002192623182847    0.0  930.63    -136.960771905521    -136.960771905521    -136.854675579976    -136.818763249419   0.0000   0.0000   0.0002   0.1444
   1348    0.002128807252023    0.0  901.48    -136.957575344018    -136.957575344018    -136.854801376885    -136.818756383674   0.0000   0.0000   0.0002   0.1453
   1349    0.002074785121177    0.0  875.69    -136.954765689910    -136.954765689910    -136.854932173253    -136.818751089940   0.0000   0.0000   0.0002   0.1463
   1350    0.002033708732659    0.0  853.92    -136.952423988758    -136.952423988758    -136.855072216281    -136.818747716019   0.0000   0.0000   0.0002   0.1472

   writing restart file (with schema): ./h2o_52.save/
     restart      :      0.47s CPU      1.93s WALL (      25 calls)
   1351    0.002007283908416    0.0  836.62    -136.950602628048    -136.950602628048    -136.855224062916    -136.818746238787   0.0000   0.0000   0.0002   0.1481
   1352    0.001995425010282    0.0  823.96    -136.949324307379    -136.949324307379    -136.855388528308    -136.818746612216   0.0000   0.0000   0.0002   0.1491
   1353    0.001996434101635    0.0  815.91    -136.948582386767    -136.948582386767    -136.855564949356    -136.818748906317   0.0000   0.0000   0.0002   0.1500
   1354    0.002007562000234    0.0  812.16    -136.948341732732    -136.948341732732    -136.855751212033    -136.818752826257   0.0000   0.0000   0.0002   0.1509
   1355    0.002026710748431    0.0  812.22    -136.948542627499    -136.948542627499    -136.855945620977    -136.818757928661   0.0000   0.0000   0.0002   0.1518
   1356    0.002053310853257    0.0  815.39    -136.949106408258    -136.949106408258    -136.856147892522    -136.818763779399   0.0000   0.0000   0.0002   0.1527
   1357    0.002086908163369    0.0  820.87    -136.949941650654    -136.949941650654    -136.856357765680    -136.818770007663   0.0000   0.0000   0.0002   0.1537
   1358    0.002125180660942    0.0  827.83    -136.950950380288    -136.950950380288    -136.856573002378    -136.818776304414   0.0000   0.0000   0.0002   0.1546
   1359    0.002163828232951    0.0  835.44    -136.952033796070    -136.952033796070    -136.856789176900    -136.818782323980   0.0000   0.0000   0.0002   0.1555
   1360    0.002198665644765    0.0  842.91    -136.953097732315    -136.953097732315    -136.857001723279    -136.818787631970   0.0000   0.0000   0.0002   0.1564

   writing restart file (with schema): ./h2o_52.save/
     restart      :      0.49s CPU      2.03s WALL (      26 calls)
   1361    0.002227543292677    0.0  849.52    -136.954057997489    -136.954057997489    -136.857208132689    -136.818791969713   0.0000   0.0000   0.0002   0.1573
   1362    0.002249832526796    0.0  854.67    -136.954844037347    -136.954844037347    -136.857407501001    -136.818795298013   0.0000   0.0000   0.0002   0.1582
   1363    0.002264717362766    0.0  857.87    -136.955400661963    -136.955400661963    -136.857598641384    -136.818797592906   0.0000   0.0000   0.0002   0.1591
   1364    0.002271010728906    0.0  858.81    -136.955689075618    -136.955689075618    -136.857779868457    -136.818798784294   0.0000   0.0000   0.0002   0.1599
   1365    0.002268401026102    0.0  857.30    -136.955687583332    -136.955687583332    -136.857950386218    -136.818798867685   0.0000   0.0000   0.0002   0.1608
   1366    0.002257858448809    0.0  853.30    -136.955391412358    -136.955391412358    -136.858110730564    -136.818797911996   0.0000   0.0000   0.0002   0.1617
   1367    0.002240623900379    0.0  846.89    -136.954811898706    -136.954811898706    -136.858261701407    -136.818795974722   0.0000   0.0000   0.0002   0.1626
   1368    0.002217141841949    0.0  838.31    -136.953975551841    -136.953975551841    -136.858403452792    -136.818793231020   0.0000   0.0000   0.0002   0.1635
   1369    0.002187035503385    0.0  827.92    -136.952922259501    -136.952922259501    -136.858535286494    -136.818789765437   0.0000   0.0000   0.0002   0.1643
   1370    0.002150213707411    0.0  816.16    -136.951703609970    -136.951703609970    -136.858656858884    -136.818785649387   0.0000   0.0000   0.0002   0.1652

   writing restart file (with schema): ./h2o_52.save/
     restart      :      0.50s CPU      2.13s WALL (      27 calls)
   1371    0.002107837879162    0.0  803.58    -136.950380997399    -136.950380997399    -136.858769244180    -136.818781020202   0.0000   0.0000   0.0002   0.1661
   1372    0.002062132520070    0.0  790.74    -136.949023018747    -136.949023018747    -136.858874826082    -136.818776150193   0.0000   0.0000   0.0002   0.1669
   1373    0.002015555001593    0.0  778.26    -136.947701933250    -136.947701933250    -136.858976342530    -136.818771314278   0.0000   0.0000   0.0002   0.1678
   1374    0.001970477610054    0.0  766.75    -136.946489983668    -136.946489983668    -136.859076498072    -136.818766718426   0.0000   0.0000   0.0002   0.1686
   1375    0.001929249780904    0.0  756.79    -136.945455762695    -136.945455762695    -136.859178238947    -136.818762717093   0.0000   0.0000   0.0002   0.1695
   1376    0.001893523378992    0.0  748.87    -136.944659285413    -136.944659285413    -136.859283919475    -136.818759665913   0.0000   0.0000   0.0002   0.1703
   1377    0.001863793782661    0.0  743.41    -136.944147212960    -136.944147212960    -136.859394514113    -136.818757611068   0.0000   0.0000   0.0002   0.1711
   1378    0.001840369985174    0.0  740.67    -136.943950638342    -136.943950638342    -136.859510903511    -136.818756629673   0.0000   0.0000   0.0002   0.1720
   1379    0.001824098966254    0.0  740.75    -136.944083571397    -136.944083571397    -136.859634647987    -136.818756907667   0.0000   0.0000   0.0002   0.1728
   1380    0.001815748572906    0.0  743.60    -136.944541448757    -136.944541448757    -136.859767028953    -136.818758428829   0.0000   0.0000   0.0002   0.1736

   writing restart file (with schema): ./h2o_52.save/
     restart      :      0.51s CPU      2.26s WALL (      28 calls)
   1381    0.001815283109087    0.0  749.03    -136.945301499824    -136.945301499824    -136.859908343594    -136.818761023152   0.0000   0.0000   0.0002   0.1744
   1382    0.001821768919918    0.0  756.69    -136.946324902254    -136.946324902254    -136.860057823003    -136.818764405266   0.0000   0.0000   0.0002   0.1753
   1383    0.001833783731532    0.0  766.16    -136.947560537378    -136.947560537378    -136.860214130077    -136.818768283798   0.0000   0.0000   0.0002   0.1761
   1384    0.001849689678899    0.0  776.93    -136.948949395044    -136.948949395044    -136.860375686889    -136.818772430195   0.0000   0.0000   0.0002   0.1769
   1385    0.001867737763978    0.0  788.46    -136.950428731325    -136.950428731325    -136.860540625901    -136.818776533108   0.0000   0.0000   0.0002   0.1777
   1386    0.001886241879390    0.0  800.22    -136.951936187799    -136.951936187799    -136.860707217903    -136.818780453647   0.0000   0.0000   0.0002   0.1785
   1387    0.001903608881949    0.0  811.71    -136.953412633066    -136.953412633066    -136.860873530069    -136.818783849402   0.0000   0.0000   0.0002   0.1793
   1388    0.001918927517071    0.0  822.49    -136.954805975107    -136.954805975107    -136.861038386021    -136.818786537134   0.0000   0.0000   0.0002   0.1801
   1389    0.001931982298877    0.0  832.17    -136.956073599299    -136.956073599299    -136.861201674751    -136.818788775739   0.0000   0.0000   0.0002   0.1808
   1390    0.001942201408501    0.0  840.48    -136.957181454652    -136.957181454652    -136.861362570361    -136.818790523980   0.0000   0.0000   0.0002   0.1816

   writing restart file (with schema): ./h2o_52.save/
     restart      :      0.53s CPU      2.34s WALL (      29 calls)
   1391    0.001948945393650    0.0  847.19    -136.958104300807    -136.958104300807    -136.861519968633    -136.818791573957   0.0000   0.0000   0.0002   0.1824
   1392    0.001952360475593    0.0  852.18    -136.958826608341    -136.958826608341    -136.861673889500    -136.818792086601   0.0000   0.0000   0.0002   0.1832
   1393    0.001952658670320    0.0  855.37    -136.959341043427    -136.959341043427    -136.861824406970    -136.818792228658   0.0000   0.0000   0.0002   0.1839
   1394    0.001949467697333    0.0  856.77    -136.959647025492    -136.959647025492    -136.861970745143    -136.818791906787   0.0000   0.0000   0.0002   0.1847
   1395    0.001942459008968    0.0  856.44    -136.959751044716    -136.959751044716    -136.862112321054    -136.818791171354   0.0000   0.0000   0.0002   0.1855
   1396    0.001931778833263    0.0  854.50    -136.959666195362    -136.959666195362    -136.862249049819    -136.818790080673   0.0000   0.0000   0.0002   0.1862
   1397    0.001918206881809    0.0  851.10    -136.959411631515    -136.959411631515    -136.862381398865    -136.818788587690   0.0000   0.0000   0.0002   0.1870
   1398    0.001903128211535    0.0  846.47    -136.959012741862    -136.959012741862    -136.862510579809    -136.818786751651   0.0000   0.0000   0.0002   0.1877
   1399    0.001887529418687    0.0  840.87    -136.958500855169    -136.958500855169    -136.862637338561    -136.818784523006   0.0000   0.0000   0.0001   0.1885

 * Physical Quantities at step:  1400

   from rhoofr: total integrated electronic density
   in g-space =     64.000000   in r-space =    64.000000


                total energy =     -136.95791359616 Hartree a.u.
              kinetic energy =       97.64524 Hartree a.u.
        electrostatic energy =     -185.33272 Hartree a.u.
                         esr =        0.01315 Hartree a.u.
                       eself =      242.55691 Hartree a.u.
      pseudopotential energy =       -9.38958 Hartree a.u.
  n-l pseudopotential energy =       -6.21197 Hartree a.u.
 exchange-correlation energy =      -33.66887 Hartree a.u.
           average potential =        0.00000 Hartree a.u.



   Eigenvalues (eV), kp =   1 , spin =  1

  -23.69  -23.28  -22.99  -22.91  -22.73  -22.65  -22.36  -21.88  -11.30  -11.02
  -10.89  -10.53  -10.47  -10.15   -9.94   -9.79   -8.14   -7.90   -7.64   -7.43
   -7.00   -6.68   -6.43   -5.75   -5.31   -5.14   -5.02   -4.97   -4.83   -4.77
   -4.62   -4.43


   CELL_PARAMETERS
   13.00000000    0.00000000    0.00000000
    0.00000000   13.00000000    0.00000000
    0.00000000    0.00000000   13.00000000

   System Density [g/cm^3] :              0.7351364820


   System Volume [A.U.^3] :           2197.0000000000


   Center of mass square displacement (a.u.):   0.000000

   ATOMIC_POSITIONS
   O       0.79919588980556E+01     0.32186039914578E+01     0.34930539626674E+01
   H       0.65411076140067E+01     0.41182654102983E+01     0.30950516787136E+01
   H       0.73491569244465E+01     0.16480259322684E+01     0.44494140419047E+01
   O       0.36622043311978E+01    -0.58543439681657E+01     0.21201458380246E+01
   H       0.42239420268190E+01    -0.43102242387548E+01     0.26004968998358E+01
   H       0.21050423361438E+01    -0.59613791251431E+01     0.35546175466935E+01
   O      -0.55316299895202E+01    -0.19891673798071E+01     0.32829208152962E+01
   H      -0.50632213910054E+01    -0.33087540207499E+01     0.22144775257009E+01
   H      -0.53645094987227E+01    -0.25004382100932E+01     0.50400405329080E+01
   O      -0.12318301636723E+01     0.60629134515915E+01     0.21059772818959E+01
   H      -0.24787657653184E+01     0.51013580717105E+01     0.31069711081461E+01
   H      -0.20977868861261E+00     0.47295456579032E+01     0.16625803018310E+01
   O       0.10240539176793E+01    -0.51348765111856E+01    -0.34279154933056E+01
   H       0.22576891296138E+01    -0.54043881492037E+01    -0.22273423828557E+01
   H       0.22096440365296E+01    -0.46803036563590E+01    -0.49201796155737E+01
   O      -0.53684920928934E+01    -0.35032166878154E+01    -0.50933159443879E+01
   H      -0.46965238486386E+01    -0.22880691274898E+01    -0.37934841566250E+01
   H      -0.54379857892103E+01    -0.54332967024303E+01    -0.41148397120537E+01
   O      -0.45448049595835E+01     0.52677898877703E+01    -0.19911069943092E+01
   H      -0.35264173603098E+01     0.57169123960933E+01    -0.59237101281387E+00
   H      -0.55378782113073E+01     0.36969405079777E+01    -0.12754158396382E+01
   O       0.40889474408808E+01     0.22032689424051E+01    -0.34120440413030E+01
   H       0.29981303334964E+01     0.62141941098571E+00    -0.34860209417511E+01
   H       0.31951879612605E+01     0.39528205884959E+01    -0.32572285513711E+01

   ATOMIC_VELOCITIES
   O       0.47233145915344E-03     0.37240819025502E-04     0.73035642726427E-06
   H       0.76688097010447E-06     0.80712603152030E-03     0.13207853616076E-02
   H      -0.44353557722341E-03     0.44527561634801E-03    -0.64785986942856E-04
   O      -0.15618696229244E-03    -0.49490226765070E-04     0.22890882383194E-03
   H       0.34213432415892E-03     0.74717521472439E-04    -0.15987410196509E-02
   H       0.16594986216390E-02    -0.20833605204251E-02    -0.40268762513596E-03
   O       0.70306547493848E-05    -0.34429294998886E-04    -0.14456914113600E-03
   H      -0.13047857024333E-02     0.15187732062455E-02     0.10943543669407E-02
   H       0.11197914954729E-02     0.20537031207854E-03    -0.68746584630447E-03
   O       0.10395627748711E-03     0.14802702421218E-03     0.91953294371888E-04
   H      -0.31456539604046E-03     0.10312952030651E-03     0.18987893512054E-04
   H       0.13927113479048E-02    -0.15538919899455E-02    -0.45654733818845E-04
   O       0.16225464299439E-03    -0.87261569571673E-05     0.20271190407726E-03
   H      -0.35466858527041E-02    -0.46010449836644E-03    -0.97256782363761E-04
   H      -0.10900572708199E-02     0.18226294862983E-03    -0.26114384883150E-02
   O      -0.38797869438537E-03     0.20608844953779E-03    -0.24792984248672E-03
   H       0.11552771870375E-02     0.13445888251876E-02     0.16958655477773E-02
   H       0.16183326529329E-03     0.12097792977068E-02     0.90778039062108E-03
   O      -0.14192120294633E-03     0.19084651632473E-04    -0.60177853904345E-04
[...]
   2040    0.001414622462669    0.0  600.58    -136.993422293041    -136.993422293041    -136.924953486608    -136.818804479085   0.0000   0.0000   0.0001   0.5582

   writing restart file (with schema): ./h2o_52.save/
     restart      :      1.72s CPU      8.07s WALL (      94 calls)
   2041    0.001387951243508    0.0  585.50    -136.991749163107    -136.991749163107    -136.924999467777    -136.818801411482   0.0000   0.0000   0.0001   0.5588
   2042    0.001363241014568    0.0  571.03    -136.990145073554    -136.990145073554    -136.925045232123    -136.818798225990   0.0000   0.0000   0.0001   0.5593
   2043    0.001340366029406    0.0  557.58    -136.988658589818    -136.988658589818    -136.925091076634    -136.818795254301   0.0000   0.0000   0.0001   0.5599
   2044    0.001320163032370    0.0  545.57    -136.987335568283    -136.987335568283    -136.925138165518    -136.818792678809   0.0000   0.0000   0.0001   0.5605
   2045    0.001304605645189    0.0  535.31    -136.986216620732    -136.986216620732    -136.925188607779    -136.818790441622   0.0000   0.0000   0.0001   0.5610
   2046    0.001295183027312    0.0  527.10    -136.985336195666    -136.985336195666    -136.925244375700    -136.818788791691   0.0000   0.0000   0.0001   0.5616
   2047    0.001291502363085    0.0  521.16    -136.984720214932    -136.984720214932    -136.925305450521    -136.818787835534   0.0000   0.0000   0.0001   0.5621
   2048    0.001292719373152    0.0  517.64    -136.984384686969    -136.984384686969    -136.925371256328    -136.818787549900   0.0000   0.0000   0.0001   0.5627
   2049    0.001299530313987    0.0  516.58    -136.984335538310    -136.984335538310    -136.925442749702    -136.818787891365   0.0000   0.0000   0.0001   0.5632
   2050    0.001313134976472    0.0  517.94    -136.984568775433    -136.984568775433    -136.925521462782    -136.818788888750   0.0000   0.0000   0.0001   0.5637

   writing restart file (with schema): ./h2o_52.save/
     restart      :      1.74s CPU      8.14s WALL (      95 calls)
   2051    0.001332782602346    0.0  521.59    -136.985070540173    -136.985070540173    -136.925606844520    -136.818790448488   0.0000   0.0000   0.0001   0.5643
   2052    0.001356227711818    0.0  527.36    -136.985818353892    -136.985818353892    -136.925696764780    -136.818792410800   0.0000   0.0000   0.0001   0.5648
   2053    0.001382375757232    0.0  535.00    -136.986783057421    -136.986783057421    -136.925790360818    -136.818794758336   0.0000   0.0000   0.0001   0.5654
   2054    0.001411813531483    0.0  544.20    -136.987930092757    -136.987930092757    -136.925888257688    -136.818797313773   0.0000   0.0000   0.0001   0.5659
   2055    0.001444698304780    0.0  554.63    -136.989221567857    -136.989221567857    -136.925990693429    -136.818799980730   0.0000   0.0000   0.0001   0.5664
   2056    0.001479156497059    0.0  565.96    -136.990617851016    -136.990617851016    -136.926095833589    -136.818802660627   0.0000   0.0000   0.0001   0.5670
   2057    0.001512682484834    0.0  577.85    -136.992079026219    -136.992079026219    -136.926201248230    -136.818805330238   0.0000   0.0000   0.0001   0.5675
   2058    0.001544554895387    0.0  589.97    -136.993566044343    -136.993566044343    -136.926306160278    -136.818807873814   0.0000   0.0000   0.0001   0.5680
   2059    0.001575836760968    0.0  602.00    -136.995042234403    -136.995042234403    -136.926411600784    -136.818810238285   0.0000   0.0000   0.0001   0.5686
   2060    0.001606917325321    0.0  613.62    -136.996474104106    -136.996474104106    -136.926517893640    -136.818812373946   0.0000   0.0000   0.0001   0.5691

   writing restart file (with schema): ./h2o_52.save/
     restart      :      1.76s CPU      8.23s WALL (      96 calls)
   2061    0.001636404065885    0.0  624.61    -136.997831954878    -136.997831954878    -136.926623434952    -136.818814117007   0.0000   0.0000   0.0001   0.5696
   2062    0.001662790087479    0.0  634.75    -136.999091213576    -136.999091213576    -136.926726700298    -136.818815524137   0.0000   0.0000   0.0001   0.5701
   2063    0.001685634379424    0.0  643.88    -137.000232729709    -137.000232729709    -136.926827175216    -136.818816618127   0.0000   0.0000   0.0001   0.5707
   2064    0.001704554701914    0.0  651.89    -137.001242974641    -137.001242974641    -136.926924428568    -136.818817463580   0.0000   0.0000   0.0001   0.5712
   2065    0.001718184389654    0.0  658.72    -137.002113820557    -137.002113820557    -136.927016809929    -136.818817901507   0.0000   0.0000   0.0001   0.5717
   2066    0.001725826445685    0.0  664.36    -137.002843380949    -137.002843380949    -136.927103391751    -136.818817831366   0.0000   0.0000   0.0001   0.5722
   2067    0.001729682515886    0.0  668.83    -137.003436478325    -137.003436478325    -136.927186399045    -136.818817407243   0.0000   0.0000   0.0001   0.5728
   2068    0.001733718368462    0.0  672.19    -137.003903449338    -137.003903449338    -136.927269799152    -136.818816758451   0.0000   0.0000   0.0001   0.5733
   2069    0.001740068259883    0.0  674.56    -137.004258833588    -137.004258833588    -136.927355662966    -136.818815941267   0.0000   0.0000   0.0001   0.5738
   2070    0.001747090597438    0.0  676.09    -137.004520232702    -137.004520232702    -136.927442313225    -136.818815024723   0.0000   0.0000   0.0001   0.5743

   writing restart file (with schema): ./h2o_52.save/
     restart      :      1.78s CPU      8.30s WALL (      97 calls)
   2071    0.001751497129951    0.0  676.99    -137.004706915309    -137.004706915309    -136.927526406533    -136.818814037892   0.0000   0.0000   0.0001   0.5748
   2072    0.001752229662907    0.0  677.44    -137.004838404472    -137.004838404472    -136.927607071870    -136.818813230799   0.0000   0.0000   0.0001   0.5754
   2073    0.001751070384691    0.0  677.56    -137.004931480888    -137.004931480888    -136.927686387366    -136.818812944693   0.0000   0.0000   0.0001   0.5759
   2074    0.001749988101955    0.0  677.43    -137.004996722051    -137.004996722051    -136.927766215037    -136.818813106444   0.0000   0.0000   0.0001   0.5764
   2075    0.001749612894100    0.0  677.08    -137.005037763888    -137.005037763888    -136.927847203256    -136.818813762336   0.0000   0.0000   0.0001   0.5769
   2076    0.001749623349575    0.0  676.47    -137.005050304240    -137.005050304240    -136.927929144958    -136.818815055693   0.0000   0.0000   0.0001   0.5775
   2077    0.001749844435312    0.0  675.49    -137.005021084821    -137.005021084821    -136.928011672030    -136.818816831755   0.0000   0.0000   0.0001   0.5780
   2078    0.001750666630938    0.0  673.95    -137.004929288371    -137.004929288371    -136.928095087073    -136.818819059403   0.0000   0.0000   0.0001   0.5785
   2079    0.001751597681663    0.0  671.63    -137.004748015916    -137.004748015916    -136.928178653935    -136.818821577179   0.0000   0.0000   0.0001   0.5790
   2080    0.001750455831669    0.0  668.28    -137.004447141043    -137.004447141043    -136.928259685220    -136.818823991235   0.0000   0.0000   0.0001   0.5795

   writing restart file (with schema): ./h2o_52.save/
     restart      :      1.79s CPU      8.33s WALL (      98 calls)
   2081    0.001744740383508    0.0  663.68    -137.003998060653    -137.003998060653    -136.928335235093    -136.818825997669   0.0000   0.0000   0.0001   0.5801
   2082    0.001733010733481    0.0  657.64    -137.003378207530    -137.003378207530    -136.928403311048    -136.818827211944   0.0000   0.0000   0.0001   0.5806
   2083    0.001715085140789    0.0  650.08    -137.002575985626    -137.002575985626    -136.928463239979    -136.818827328623   0.0000   0.0000   0.0001   0.5811
   2084    0.001691125922849    0.0  641.02    -137.001594782370    -137.001594782370    -136.928514996203    -136.818826351590   0.0000   0.0000   0.0001   0.5816
   2085    0.001660987780235    0.0  630.64    -137.000454483398    -137.000454483398    -136.928558122339    -136.818824149954   0.0000   0.0000   0.0001   0.5822
   2086    0.001625186588832    0.0  619.27    -136.999192720080    -136.999192720080    -136.928592999069    -136.818820740820   0.0000   0.0000   0.0001   0.5827
   2087    0.001585652230498    0.0  607.36    -136.997864312288    -136.997864312288    -136.928621597332    -136.818816271003   0.0000   0.0000   0.0001   0.5832
   2088    0.001544906185923    0.0  595.52    -136.996538614179    -136.996538614179    -136.928646771128    -136.818811116326   0.0000   0.0000   0.0001   0.5837
   2089    0.001504851117318    0.0  584.39    -136.995294360381    -136.995294360381    -136.928670890742    -136.818805712432   0.0000   0.0000   0.0001   0.5842
   2090    0.001466945528217    0.0  574.69    -136.994213259469    -136.994213259469    -136.928695926925    -136.818800457040   0.0000   0.0000   0.0001   0.5847

   writing restart file (with schema): ./h2o_52.save/
     restart      :      1.81s CPU      8.46s WALL (      99 calls)
   2091    0.001433150819580    0.0  567.07    -136.993373474230    -136.993373474230    -136.928724499533    -136.818795811820   0.0000   0.0000   0.0001   0.5853
   2092    0.001405700057342    0.0  562.11    -136.992843080460    -136.992843080460    -136.928759455940    -136.818792119626   0.0000   0.0000   0.0001   0.5858
   2093    0.001386104655416    0.0  560.25    -136.992674812366    -136.992674812366    -136.928802964227    -136.818789704091   0.0000   0.0000   0.0001   0.5863
   2094    0.001374970706759    0.0  561.78    -136.992901748973    -136.992901748973    -136.928856256394    -136.818788813865   0.0000   0.0000   0.0001   0.5868
   2095    0.001372726838987    0.0  566.76    -136.993534247537    -136.993534247537    -136.928920173922    -136.818789461393   0.0000   0.0000   0.0001   0.5873
   2096    0.001380102412825    0.0  575.10    -136.994559597736    -136.994559597736    -136.928995552851    -136.818791352798   0.0000   0.0000   0.0001   0.5878
   2097    0.001397213070939    0.0  586.48    -136.995944693484    -136.995944693484    -136.929082801097    -136.818794401141   0.0000   0.0000   0.0001   0.5883
   2098    0.001422086628959    0.0  600.48    -136.997638452073    -136.997638452073    -136.929180080435    -136.818798400059   0.0000   0.0000   0.0001   0.5888
   2099    0.001451702756062    0.0  616.56    -136.999575413698    -136.999575413698    -136.929284255622    -136.818802947187   0.0000   0.0000   0.0001   0.5893

 * Physical Quantities at step:  2100

   from rhoofr: total integrated electronic density
   in g-space =     64.000000   in r-space =    64.000000


                total energy =     -137.00168086356 Hartree a.u.
              kinetic energy =       98.34693 Hartree a.u.
        electrostatic energy =     -185.59855 Hartree a.u.
                         esr =        0.01665 Hartree a.u.
                       eself =      242.55691 Hartree a.u.
      pseudopotential energy =       -9.52881 Hartree a.u.
  n-l pseudopotential energy =       -6.36500 Hartree a.u.
 exchange-correlation energy =      -33.85624 Hartree a.u.
           average potential =        0.00000 Hartree a.u.



   Eigenvalues (eV), kp =   1 , spin =  1

  -24.12  -23.67  -23.61  -23.26  -23.20  -22.80  -22.51  -22.43  -11.65  -11.56
  -11.11  -10.75  -10.30  -10.23  -10.17   -9.83   -8.57   -8.05   -7.74   -7.62
   -7.15   -6.95   -6.78   -6.22   -5.69   -5.33   -5.28   -5.21   -4.98   -4.91
   -4.72   -4.55


   CELL_PARAMETERS
   13.00000000    0.00000000    0.00000000
    0.00000000   13.00000000    0.00000000
    0.00000000    0.00000000   13.00000000

   System Density [g/cm^3] :              0.7351364820


   System Volume [A.U.^3] :           2197.0000000000


   Center of mass square displacement (a.u.):   0.000000

   ATOMIC_POSITIONS
   O       0.77959737117908E+01     0.32084939164186E+01     0.39943567969607E+01
   H       0.66559368108994E+01     0.44338265134164E+01     0.33941882656813E+01
   H       0.76942404670252E+01     0.18661880975482E+01     0.26855904688757E+01
   O       0.46223576048949E+01    -0.61465406954609E+01     0.23674441899341E+01
   H       0.47835424760363E+01    -0.44717499945309E+01     0.31351653844611E+01
   H       0.26687407203900E+01    -0.63517601670027E+01     0.21806585420272E+01
   O      -0.53399982585936E+01    -0.21522868122293E+01     0.29257312064612E+01
   H      -0.43139535176500E+01    -0.31346347084131E+01     0.19456445178643E+01
   H      -0.51186300507767E+01    -0.24454127511740E+01     0.47716618489649E+01
   O      -0.87814725522098E+00     0.60141805523240E+01     0.21907293089785E+01
   H      -0.22463827744807E+01     0.51610122286640E+01     0.30898901506569E+01
   H      -0.11435983343716E+01     0.55544940216707E+01     0.30754160292384E+00
   O       0.10854086814470E+01    -0.50385705272692E+01    -0.29950893034781E+01
   H       0.17771379168674E+01    -0.47429921177362E+01    -0.14242814947028E+01
   H       0.27861787012736E+01    -0.45363729671858E+01    -0.38630523680191E+01
   O      -0.60693623781363E+01    -0.27149810264521E+01    -0.48981715733450E+01
   H      -0.43742756688972E+01    -0.18739028126687E+01    -0.44981167233139E+01
   H      -0.57539454575320E+01    -0.43787998076839E+01    -0.43352037604171E+01
   O      -0.53999838449502E+01     0.55895180517397E+01    -0.30257017228083E+01
   H      -0.61108604692855E+01     0.58427878001956E+01    -0.14463688110885E+01
   H      -0.64435338662535E+01     0.41785581192116E+01    -0.31979546372376E+01
   O       0.42273445941549E+01     0.14417254492349E+01    -0.30377507071627E+01
   H       0.48024034971167E+01    -0.14572606230652E+00    -0.30682386506085E+01
   H       0.36449808114757E+01     0.18451369218383E+01    -0.46660205060256E+01

   ATOMIC_VELOCITIES
   O      -0.63896857379697E-04    -0.56565346254975E-04     0.12522752981945E-03
   H      -0.71737580055750E-03     0.90073018079637E-03     0.29208297746369E-04
   H      -0.14995080940171E-03     0.75355788939854E-03     0.18749422074431E-03
   O       0.28183789603849E-03    -0.10132026578886E-03    -0.26276972724373E-04
   H       0.24752165806281E-02    -0.15339219199030E-02    -0.41557146315188E-03
   H      -0.27279543219764E-02    -0.13566255659466E-02    -0.10806325672176E-02
   O       0.21673429093546E-03     0.89052012287286E-04     0.46700492144289E-04
   H       0.22787342046907E-03    -0.31473811071578E-03    -0.11742609884383E-02
   H       0.49845714532389E-03    -0.95573503368440E-03     0.18825229844051E-02
   O      -0.14001229633184E-03    -0.14633824345490E-03    -0.24571632857173E-04
   H       0.69191112853586E-03     0.12527058331192E-02     0.56705013881773E-03
   H      -0.96343053530723E-03     0.38117105772020E-03    -0.92672886346344E-03
   O       0.29099761913046E-03     0.11624952713612E-03     0.18862654990841E-03
   H      -0.89707421601986E-03     0.54410970277179E-03     0.30430928585787E-03
   H      -0.27450424293571E-02    -0.42473680665078E-03    -0.84858303562203E-03
   O      -0.22894867113105E-04     0.36588031270229E-03    -0.39657049543412E-04
   H      -0.11274596496450E-02     0.47389943645909E-03     0.11470930756524E-04
   H       0.14274680734419E-02    -0.44595372043467E-03    -0.33819792618333E-03
   O      -0.34788324120238E-03     0.13507287792834E-03    -0.13939434463341E-03
   H      -0.11715656736750E-02    -0.24765052936772E-02    -0.28976174576736E-03
   H      -0.23873096212600E-02    -0.86109021762790E-03    -0.30131666379794E-03
   O       0.18538385861217E-03     0.12773948942764E-04     0.37158951220329E-04
   H       0.67376770479512E-03    -0.27378264133414E-02    -0.60403455828331E-03
   H       0.53840367705229E-03     0.21610217452539E-03     0.33306095116947E-03



   Partial temperatures (for each ionic specie) 
   Species  Temp (K)   Mean Square Displacement (a.u.)
        1   2.60E+02     6.6184E+00
        2   8.21E+02     1.1301E+01

  nfi     ekinc              temph  tempp     etot                 enthal               econs                econt              vnhh    xnhh0   vnhp    xnhp0
   2100    0.001484554028821    0.0  634.07    -137.001680863564    -137.001680863564    -136.929393758279    -136.818807758595   0.0000   0.0000   0.0001   0.5898

   writing restart file (with schema): ./h2o_52.save/
     restart      :      1.83s CPU      8.54s WALL (     100 calls)


   Averaged Physical Quantities
                      accumulated      this run
   ekinc         :        0.00226       0.00195 (AU)
   ekin          :       97.72227      97.74805 (AU)
   epot          :     -228.45166    -228.47175 (AU)
   total energy  :     -136.95874    -136.97201 (AU)
   temperature   :      959.80029     810.10681 (K )
   enthalpy      :     -130.43822    -136.97201 (AU)
   econs         :     -136.84931    -136.87965 (AU)
   pressure      :        0.00000       0.00000 (Gpa)
   volume        :     2197.00000    2197.00000 (AU)



     Called by MAIN_LOOP:
     initialize   :      1.15s CPU      1.15s WALL (       1 calls)
     main_loop    :     91.87s CPU     95.66s WALL (    1000 calls)
     cpr_total    :     93.73s CPU    104.24s WALL (       1 calls)

     Called by INIT_RUN:
     init_readfil :      0.16s CPU      0.16s WALL (       1 calls)

     Called by CPR:
     cpr_md       :     93.73s CPU    104.23s WALL (    1000 calls)
     move_electro :     71.16s CPU     74.77s WALL (    1000 calls)

     Called by move_electrons:
     rhoofr       :     10.07s CPU     11.07s WALL (    1000 calls)
     vofrho       :     26.89s CPU     27.66s WALL (    1000 calls)
     dforce       :     18.07s CPU     19.72s WALL (   16000 calls)
     calphi       :      0.21s CPU      0.21s WALL (    1000 calls)
     nlfl         :      0.04s CPU      0.04s WALL (    1000 calls)

     Called by ortho:
     ortho_iter   :      6.02s CPU      6.03s WALL (    1000 calls)
     rsg          :      0.32s CPU      0.32s WALL (    1000 calls)
     rhoset       :      1.57s CPU      1.58s WALL (    1000 calls)
     sigset       :      1.57s CPU      1.57s WALL (    1000 calls)
     tauset       :      1.57s CPU      1.57s WALL (    1000 calls)
     ortho        :     11.11s CPU     11.13s WALL (    1000 calls)
     updatc       :      1.18s CPU      1.18s WALL (    1000 calls)

     Small boxes:

     Low-level routines:
     prefor       :      1.54s CPU      1.57s WALL (    4001 calls)
     nlfq         :     14.98s CPU     15.14s WALL (    1000 calls)
     nlsm1        :      5.39s CPU      5.40s WALL (    1001 calls)
     nlsm2        :     14.91s CPU     15.08s WALL (    1000 calls)
     fft          :      6.93s CPU      7.61s WALL (    8100 calls)
     ffts         :      1.62s CPU      1.78s WALL (    2000 calls)
     fftw         :     20.33s CPU     22.35s WALL (   48000 calls)
     fft_scatt_xy :      2.49s CPU      2.73s WALL (   58100 calls)
     fft_scatt_yz :     12.29s CPU     13.73s WALL (   58100 calls)
     fft_scatt_tg :      0.32s CPU      0.35s WALL (   48000 calls)
     betagx       :      0.62s CPU      0.62s WALL (       1 calls)
     qradx        :      0.00s CPU      0.00s WALL (       1 calls)
     nlinit       :      0.92s CPU      0.92s WALL (       1 calls)
     init_dim     :      0.03s CPU      0.03s WALL (       1 calls)
     newnlinit    :      0.00s CPU      0.00s WALL (       1 calls)
     from_restart :      0.01s CPU      0.01s WALL (       1 calls)
     strucf       :      0.80s CPU      0.82s WALL (    1001 calls)
     calbec       :      5.40s CPU      5.40s WALL (    1001 calls)


     CP           :   1m34.91s CPU   1m45.42s WALL


   This run was terminated on:  21:58:42  20Apr2021            

=------------------------------------------------------------------------------=
   JOB DONE.
=------------------------------------------------------------------------------=
