 CRYSTAL
 PRIMVEC
   -1.984414532    0.000000000    1.984414532
    0.000000000    1.984414532    1.984414532
   -1.984414532    1.984414532    0.000000000
 PRIMCOORD
           1           1
Al        0.000000000    0.000000000    0.000000000
BEGIN_BLOCK_DATAGRID_3D
3D_PWSCF
DATAGRID_3D_UNKNOWN
          41          41          41
  0.000000  0.000000  0.000000
   -1.984415    0.000000    1.984415
    0.000000    1.984415    1.984415
   -1.984415    1.984415    0.000000
  0.653295E+01  0.143343E+00  0.162365E+00  0.112615E+00  0.456627E-01  0.104737E-01
  0.900225E-03  0.392834E-02  0.111038E-01  0.183519E-01  0.241399E-01  0.282080E-01
  0.307996E-01  0.322631E-01  0.329068E-01  0.330526E-01  0.329177E-01  0.326446E-01
  0.323483E-01  0.321294E-01  0.320488E-01  0.321294E-01  0.323483E-01  0.326446E-01
  0.329177E-01  0.330526E-01  0.329068E-01  0.322631E-01  0.307996E-01  0.282080E-01
  0.241399E-01  0.183519E-01  0.111038E-01  0.392834E-02  0.900225E-03  0.104737E-01
  0.456627E-01  0.112615E+00  0.162365E+00  0.143343E+00  0.653295E+01  0.143343E+00
  0.156202E+00  0.138051E+00  0.689277E-01  0.212566E-01  0.280401E-02  0.169625E-02
  0.769809E-02  0.151739E-01  0.216870E-01  0.265169E-01  0.297417E-01  0.316858E-01
  0.326691E-01  0.330141E-01  0.329879E-01  0.327628E-01  0.324597E-01  0.321903E-01
  0.320341E-01  0.320341E-01  0.321903E-01  0.324597E-01  0.327628E-01  0.329879E-01
  0.330141E-01  0.326691E-01  0.316858E-01  0.297417E-01  0.265169E-01  0.216870E-01
  0.151739E-01  0.769809E-02  0.169625E-02  0.280401E-02  0.212566E-01  0.689277E-01
  0.138051E+00  0.156202E+00  0.143343E+00  0.143343E+00  0.162365E+00  0.138051E+00
  0.784817E-01  0.292441E-01  0.566966E-02  0.889553E-03  0.528431E-02  0.125053E-01
  0.194145E-01  0.248333E-01  0.286118E-01  0.310009E-01  0.323268E-01  0.328854E-01
  0.329813E-01  0.328157E-01  0.325224E-01  0.322156E-01  0.319916E-01  0.319091E-01
  0.319916E-01  0.322156E-01  0.325224E-01  0.328157E-01  0.329813E-01  0.328854E-01
  0.323268E-01  0.310009E-01  0.286118E-01  0.248333E-01  0.194145E-01  0.125053E-01
  0.528431E-02  0.889553E-03  0.566966E-02  0.292441E-01  0.784817E-01  0.138051E+00
  0.162365E+00  0.156202E+00  0.162365E+00  0.112615E+00  0.689277E-01  0.292441E-01
  0.702269E-02  0.821502E-03  0.392317E-02  0.106142E-01  0.175803E-01  0.233451E-01
  0.275342E-01  0.302930E-01  0.319199E-01  0.326917E-01  0.329133E-01  0.328129E-01
  0.325403E-01  0.322092E-01  0.319257E-01  0.317635E-01  0.317635E-01  0.319257E-01
  0.322092E-01  0.325403E-01  0.328129E-01  0.329133E-01  0.326917E-01  0.319199E-01
  0.302930E-01  0.275342E-01  0.233451E-01  0.175803E-01  0.106142E-01  0.392317E-02
  0.821502E-03  0.702269E-02  0.292441E-01  0.689277E-01  0.112615E+00  0.138051E+00
  0.138051E+00  0.112615E+00  0.456627E-01  0.212566E-01  0.566966E-02  0.821502E-03
  0.349588E-02  0.964427E-02  0.163938E-01  0.222340E-01  0.266416E-01  0.296522E-01
  0.315074E-01  0.324669E-01  0.328056E-01  0.327698E-01  0.325221E-01  0.321777E-01
  0.318438E-01  0.316069E-01  0.315214E-01  0.316069E-01  0.318438E-01  0.321777E-01
  0.325221E-01  0.327698E-01  0.328056E-01  0.324669E-01  0.315074E-01  0.296522E-01
  0.266416E-01  0.222340E-01  0.163938E-01  0.964427E-02  0.349588E-02  0.821502E-03
  0.566966E-02  0.212566E-01  0.456627E-01  0.689277E-01  0.784817E-01  0.689277E-01
  0.456627E-01  0.104737E-01  0.280401E-02  0.889553E-03  0.392317E-02  0.964427E-02
  0.159838E-01  0.216402E-01  0.260522E-01  0.291658E-01  0.311554E-01  0.322497E-01
  0.326830E-01  0.327037E-01  0.324806E-01  0.321292E-01  0.317549E-01  0.314500E-01
  0.312800E-01  0.312800E-01  0.314500E-01  0.317549E-01  0.321292E-01  0.324806E-01
  0.327037E-01  0.326830E-01  0.322497E-01  0.311554E-01  0.291658E-01  0.260522E-01
  0.216402E-01  0.159838E-01  0.964427E-02  0.392317E-02  0.889553E-03  0.280401E-02
  0.104737E-01  0.212566E-01  0.292441E-01  0.292441E-01  0.212566E-01  0.104737E-01
  0.900225E-03  0.169625E-02  0.528431E-02  0.106142E-01  0.163938E-01  0.216402E-01
  0.258461E-01  0.289031E-01  0.309191E-01  0.320778E-01  0.325719E-01  0.326335E-01
  0.324296E-01  0.320749E-01  0.316678E-01  0.313040E-01  0.310538E-01  0.309656E-01
  0.310538E-01  0.313040E-01  0.316678E-01  0.320749E-01  0.324296E-01  0.326335E-01
  0.325719E-01  0.320778E-01  0.309191E-01  0.289031E-01  0.258461E-01  0.216402E-01
  0.163938E-01  0.106142E-01  0.528431E-02  0.169625E-02  0.900225E-03  0.280401E-02
  0.566966E-02  0.702269E-02  0.566966E-02  0.280401E-02  0.900225E-03  0.392834E-02
  0.769809E-02  0.125053E-01  0.175803E-01  0.222340E-01  0.260522E-01  0.289031E-01
  0.308361E-01  0.319833E-01  0.324946E-01  0.325761E-01  0.323821E-01  0.320238E-01
  0.315909E-01  0.311769E-01  0.308551E-01  0.306806E-01  0.306806E-01  0.308551E-01
  0.311769E-01  0.315909E-01  0.320238E-01  0.323821E-01  0.325761E-01  0.324946E-01
  0.319833E-01  0.308361E-01  0.289031E-01  0.260522E-01  0.222340E-01  0.175803E-01
  0.125053E-01  0.769809E-02  0.392834E-02  0.169625E-02  0.889553E-03  0.821502E-03
  0.821502E-03  0.889553E-03  0.169625E-02  0.392834E-02  0.111038E-01  0.151739E-01
  0.194145E-01  0.233451E-01  0.266416E-01  0.291658E-01  0.309191E-01  0.319833E-01
  0.324671E-01  0.325437E-01  0.323491E-01  0.319843E-01  0.315311E-01  0.310761E-01
  0.306931E-01  0.304390E-01  0.303509E-01  0.304390E-01  0.306931E-01  0.310761E-01
  0.315311E-01  0.319843E-01  0.323491E-01  0.325437E-01  0.324671E-01  0.319833E-01
  0.309191E-01  0.291658E-01  0.266416E-01  0.233451E-01  0.194145E-01  0.151739E-01
  0.111038E-01  0.769809E-02  0.528431E-02  0.392317E-02  0.349588E-02  0.392317E-02
  0.528431E-02  0.769809E-02  0.111038E-01  0.183519E-01  0.216870E-01  0.248333E-01
  0.275342E-01  0.296522E-01  0.311554E-01  0.320778E-01  0.324946E-01  0.325437E-01
  0.323373E-01  0.319631E-01  0.314932E-01  0.310067E-01  0.305738E-01  0.302513E-01
  0.300799E-01  0.300799E-01  0.302513E-01  0.305738E-01  0.310067E-01  0.314932E-01
  0.319631E-01  0.323373E-01  0.325437E-01  0.324946E-01  0.320778E-01  0.311554E-01
  0.296522E-01  0.275342E-01  0.248333E-01  0.216870E-01  0.183519E-01  0.151739E-01
  0.125053E-01  0.106142E-01  0.964427E-02  0.964427E-02  0.106142E-01  0.125053E-01
  0.151739E-01  0.183519E-01  0.241399E-01  0.265169E-01  0.286118E-01  0.302930E-01
  0.315074E-01  0.322497E-01  0.325719E-01  0.325761E-01  0.323491E-01  0.319631E-01
  0.314800E-01  0.309711E-01  0.305007E-01  0.301231E-01  0.298802E-01  0.297958E-01
  0.298802E-01  0.301231E-01  0.305007E-01  0.309711E-01  0.314800E-01  0.319631E-01
  0.323491E-01  0.325761E-01  0.325719E-01  0.322497E-01  0.315074E-01  0.302930E-01
  0.286118E-01  0.265169E-01  0.241399E-01  0.216870E-01  0.194145E-01  0.175803E-01
  0.163938E-01  0.159838E-01  0.163938E-01  0.175803E-01  0.194145E-01  0.216870E-01
  0.241399E-01  0.282080E-01  0.297417E-01  0.310009E-01  0.319199E-01  0.324669E-01
  0.326830E-01  0.326335E-01  0.323821E-01  0.319843E-01  0.314932E-01  0.309711E-01
  0.304764E-01  0.300583E-01  0.297579E-01  0.296006E-01  0.296006E-01  0.297579E-01
  0.300583E-01  0.304764E-01  0.309711E-01  0.314932E-01  0.319843E-01  0.323821E-01
  0.326335E-01  0.326830E-01  0.324669E-01  0.319199E-01  0.310009E-01  0.297417E-01
  0.282080E-01  0.265169E-01  0.248333E-01  0.233451E-01  0.222340E-01  0.216402E-01
  0.216402E-01  0.222340E-01  0.233451E-01  0.248333E-01  0.265169E-01  0.282080E-01
  0.307996E-01  0.316858E-01  0.323268E-01  0.326917E-01  0.328056E-01  0.327037E-01
  0.324296E-01  0.320238E-01  0.315311E-01  0.310067E-01  0.305007E-01  0.300583E-01
  0.297165E-01  0.295008E-01  0.294272E-01  0.295008E-01  0.297165E-01  0.300583E-01
  0.305007E-01  0.310067E-01  0.315311E-01  0.320238E-01  0.324296E-01  0.327037E-01
  0.328056E-01  0.326917E-01  0.323268E-01  0.316858E-01  0.307996E-01  0.297417E-01
  0.286118E-01  0.275342E-01  0.266416E-01  0.260522E-01  0.258461E-01  0.260522E-01
  0.266416E-01  0.275342E-01  0.286118E-01  0.297417E-01  0.307996E-01  0.322631E-01
  0.326691E-01  0.328854E-01  0.329133E-01  0.327698E-01  0.324806E-01  0.320749E-01
  0.315909E-01  0.310761E-01  0.305738E-01  0.301231E-01  0.297579E-01  0.295008E-01
  0.293688E-01  0.293688E-01  0.295008E-01  0.297579E-01  0.301231E-01  0.305738E-01
  0.310761E-01  0.315909E-01  0.320749E-01  0.324806E-01  0.327698E-01  0.329133E-01
  0.328854E-01  0.326691E-01  0.322631E-01  0.316858E-01  0.310009E-01  0.302930E-01
  0.296522E-01  0.291658E-01  0.289031E-01  0.289031E-01  0.291658E-01  0.296522E-01
  0.302930E-01  0.310009E-01  0.316858E-01  0.322631E-01  0.329068E-01  0.330141E-01
  0.329813E-01  0.328129E-01  0.325221E-01  0.321292E-01  0.316678E-01  0.311769E-01
  0.306931E-01  0.302513E-01  0.298802E-01  0.296006E-01  0.294272E-01  0.293688E-01
  0.294272E-01  0.296006E-01  0.298802E-01  0.302513E-01  0.306931E-01  0.311769E-01
  0.316678E-01  0.321292E-01  0.325221E-01  0.328129E-01  0.329813E-01  0.330141E-01
  0.329068E-01  0.326691E-01  0.323268E-01  0.319199E-01  0.315074E-01  0.311554E-01
  0.309191E-01  0.308361E-01  0.309191E-01  0.311554E-01  0.315074E-01  0.319199E-01
  0.323268E-01  0.326691E-01  0.329068E-01  0.330526E-01  0.329879E-01  0.328157E-01
  0.325403E-01  0.321777E-01  0.317549E-01  0.313040E-01  0.308551E-01  0.304390E-01
  0.300799E-01  0.297958E-01  0.296006E-01  0.295008E-01  0.295008E-01  0.296006E-01
  0.297958E-01  0.300799E-01  0.304390E-01  0.308551E-01  0.313040E-01  0.317549E-01
  0.321777E-01  0.325403E-01  0.328157E-01  0.329879E-01  0.330526E-01  0.330141E-01
  0.328854E-01  0.326917E-01  0.324669E-01  0.322497E-01  0.320778E-01  0.319833E-01
  0.319833E-01  0.320778E-01  0.322497E-01  0.324669E-01  0.326917E-01  0.328854E-01
  0.330141E-01  0.330526E-01  0.329177E-01  0.327628E-01  0.325224E-01  0.322092E-01
  0.318438E-01  0.314500E-01  0.310538E-01  0.306806E-01  0.303509E-01  0.300799E-01
  0.298802E-01  0.297579E-01  0.297165E-01  0.297579E-01  0.298802E-01  0.300799E-01
  0.303509E-01  0.306806E-01  0.310538E-01  0.314500E-01  0.318438E-01  0.322092E-01
  0.325224E-01  0.327628E-01  0.329177E-01  0.329879E-01  0.329813E-01  0.329133E-01
  0.328056E-01  0.326830E-01  0.325719E-01  0.324946E-01  0.324671E-01  0.324946E-01
  0.325719E-01  0.326830E-01  0.328056E-01  0.329133E-01  0.329813E-01  0.329879E-01
  0.329177E-01  0.326446E-01  0.324597E-01  0.322156E-01  0.319257E-01  0.316069E-01
  0.312800E-01  0.309656E-01  0.306806E-01  0.304390E-01  0.302513E-01  0.301231E-01
  0.300583E-01  0.300583E-01  0.301231E-01  0.302513E-01  0.304390E-01  0.306806E-01
  0.309656E-01  0.312800E-01  0.316069E-01  0.319257E-01  0.322156E-01  0.324597E-01
  0.326446E-01  0.327628E-01  0.328157E-01  0.328129E-01  0.327698E-01  0.327037E-01
  0.326335E-01  0.325761E-01  0.325437E-01  0.325437E-01  0.325761E-01  0.326335E-01
  0.327037E-01  0.327698E-01  0.328129E-01  0.328157E-01  0.327628E-01  0.326446E-01
  0.323483E-01  0.321903E-01  0.319916E-01  0.317635E-01  0.315214E-01  0.312800E-01
  0.310538E-01  0.308551E-01  0.306931E-01  0.305738E-01  0.305007E-01  0.304764E-01
  0.305007E-01  0.305738E-01  0.306931E-01  0.308551E-01  0.310538E-01  0.312800E-01
  0.315214E-01  0.317635E-01  0.319916E-01  0.321903E-01  0.323483E-01  0.324597E-01
  0.325224E-01  0.325403E-01  0.325221E-01  0.324806E-01  0.324296E-01  0.323821E-01
  0.323491E-01  0.323373E-01  0.323491E-01  0.323821E-01  0.324296E-01  0.324806E-01
  0.325221E-01  0.325403E-01  0.325224E-01  0.324597E-01  0.323483E-01  0.321294E-01
  0.320341E-01  0.319091E-01  0.317635E-01  0.316069E-01  0.314500E-01  0.313040E-01
  0.311769E-01  0.310761E-01  0.310067E-01  0.309711E-01  0.309711E-01  0.310067E-01
  0.310761E-01  0.311769E-01  0.313040E-01  0.314500E-01  0.316069E-01  0.317635E-01
  0.319091E-01  0.320341E-01  0.321294E-01  0.321903E-01  0.322156E-01  0.322092E-01
  0.321777E-01  0.321292E-01  0.320749E-01  0.320238E-01  0.319843E-01  0.319631E-01
  0.319631E-01  0.319843E-01  0.320238E-01  0.320749E-01  0.321292E-01  0.321777E-01
  0.322092E-01  0.322156E-01  0.321903E-01  0.321294E-01  0.320488E-01  0.320341E-01
  0.319916E-01  0.319257E-01  0.318438E-01  0.317549E-01  0.316678E-01  0.315909E-01
  0.315311E-01  0.314932E-01  0.314800E-01  0.314932E-01  0.315311E-01  0.315909E-01
  0.316678E-01  0.317549E-01  0.318438E-01  0.319257E-01  0.319916E-01  0.320341E-01
  0.320488E-01  0.320341E-01  0.319916E-01  0.319257E-01  0.318438E-01  0.317549E-01
  0.316678E-01  0.315909E-01  0.315311E-01  0.314932E-01  0.314800E-01  0.314932E-01
  0.315311E-01  0.315909E-01  0.316678E-01  0.317549E-01  0.318438E-01  0.319257E-01
  0.319916E-01  0.320341E-01  0.320488E-01  0.321294E-01  0.321903E-01  0.322156E-01
  0.322092E-01  0.321777E-01  0.321292E-01  0.320749E-01  0.320238E-01  0.319843E-01
  0.319631E-01  0.319631E-01  0.319843E-01  0.320238E-01  0.320749E-01  0.321292E-01
  0.321777E-01  0.322092E-01  0.322156E-01  0.321903E-01  0.321294E-01  0.320341E-01
  0.319091E-01  0.317635E-01  0.316069E-01  0.314500E-01  0.313040E-01  0.311769E-01
  0.310761E-01  0.310067E-01  0.309711E-01  0.309711E-01  0.310067E-01  0.310761E-01
  0.311769E-01  0.313040E-01  0.314500E-01  0.316069E-01  0.317635E-01  0.319091E-01
  0.320341E-01  0.321294E-01  0.323483E-01  0.324597E-01  0.325224E-01  0.325403E-01
  0.325221E-01  0.324806E-01  0.324296E-01  0.323821E-01  0.323491E-01  0.323373E-01
  0.323491E-01  0.323821E-01  0.324296E-01  0.324806E-01  0.325221E-01  0.325403E-01
  0.325224E-01  0.324597E-01  0.323483E-01  0.321903E-01  0.319916E-01  0.317635E-01
  0.315214E-01  0.312800E-01  0.310538E-01  0.308551E-01  0.306931E-01  0.305738E-01
  0.305007E-01  0.304764E-01  0.305007E-01  0.305738E-01  0.306931E-01  0.308551E-01
  0.310538E-01  0.312800E-01  0.315214E-01  0.317635E-01  0.319916E-01  0.321903E-01
  0.323483E-01  0.326446E-01  0.327628E-01  0.328157E-01  0.328129E-01  0.327698E-01
  0.327037E-01  0.326335E-01  0.325761E-01  0.325437E-01  0.325437E-01  0.325761E-01
  0.326335E-01  0.327037E-01  0.327698E-01  0.328129E-01  0.328157E-01  0.327628E-01
  0.326446E-01  0.324597E-01  0.322156E-01  0.319257E-01  0.316069E-01  0.312800E-01
  0.309656E-01  0.306806E-01  0.304390E-01  0.302513E-01  0.301231E-01  0.300583E-01
  0.300583E-01  0.301231E-01  0.302513E-01  0.304390E-01  0.306806E-01  0.309656E-01
  0.312800E-01  0.316069E-01  0.319257E-01  0.322156E-01  0.324597E-01  0.326446E-01
  0.329177E-01  0.329879E-01  0.329813E-01  0.329133E-01  0.328056E-01  0.326830E-01
  0.325719E-01  0.324946E-01  0.324671E-01  0.324946E-01  0.325719E-01  0.326830E-01
  0.328056E-01  0.329133E-01  0.329813E-01  0.329879E-01  0.329177E-01  0.327628E-01
  0.325224E-01  0.322092E-01  0.318438E-01  0.314500E-01  0.310538E-01  0.306806E-01
  0.303509E-01  0.300799E-01  0.298802E-01  0.297579E-01  0.297165E-01  0.297579E-01
  0.298802E-01  0.300799E-01  0.303509E-01  0.306806E-01  0.310538E-01  0.314500E-01
  0.318438E-01  0.322092E-01  0.325224E-01  0.327628E-01  0.329177E-01  0.330526E-01
  0.330141E-01  0.328854E-01  0.326917E-01  0.324669E-01  0.322497E-01  0.320778E-01
  0.319833E-01  0.319833E-01  0.320778E-01  0.322497E-01  0.324669E-01  0.326917E-01
  0.328854E-01  0.330141E-01  0.330526E-01  0.329879E-01  0.328157E-01  0.325403E-01
  0.321777E-01  0.317549E-01  0.313040E-01  0.308551E-01  0.304390E-01  0.300799E-01
  0.297958E-01  0.296006E-01  0.295008E-01  0.295008E-01  0.296006E-01  0.297958E-01
  0.300799E-01  0.304390E-01  0.308551E-01  0.313040E-01  0.317549E-01  0.321777E-01
  0.325403E-01  0.328157E-01  0.329879E-01  0.330526E-01  0.329068E-01  0.326691E-01
  0.323268E-01  0.319199E-01  0.315074E-01  0.311554E-01  0.309191E-01  0.308361E-01
  0.309191E-01  0.311554E-01  0.315074E-01  0.319199E-01  0.323268E-01  0.326691E-01
  0.329068E-01  0.330141E-01  0.329813E-01  0.328129E-01  0.325221E-01  0.321292E-01
  0.316678E-01  0.311769E-01  0.306931E-01  0.302513E-01  0.298802E-01  0.296006E-01
  0.294272E-01  0.293688E-01  0.294272E-01  0.296006E-01  0.298802E-01  0.302513E-01
  0.306931E-01  0.311769E-01  0.316678E-01  0.321292E-01  0.325221E-01  0.328129E-01
  0.329813E-01  0.330141E-01  0.329068E-01  0.322631E-01  0.316858E-01  0.310009E-01
  0.302930E-01  0.296522E-01  0.291658E-01  0.289031E-01  0.289031E-01  0.291658E-01
  0.296522E-01  0.302930E-01  0.310009E-01  0.316858E-01  0.322631E-01  0.326691E-01
  0.328854E-01  0.329133E-01  0.327698E-01  0.324806E-01  0.320749E-01  0.315909E-01
  0.310761E-01  0.305738E-01  0.301231E-01  0.297579E-01  0.295008E-01  0.293688E-01
  0.293688E-01  0.295008E-01  0.297579E-01  0.301231E-01  0.305738E-01  0.310761E-01
  0.315909E-01  0.320749E-01  0.324806E-01  0.327698E-01  0.329133E-01  0.328854E-01
  0.326691E-01  0.322631E-01  0.307996E-01  0.297417E-01  0.286118E-01  0.275342E-01
  0.266416E-01  0.260522E-01  0.258461E-01  0.260522E-01  0.266416E-01  0.275342E-01
  0.286118E-01  0.297417E-01  0.307996E-01  0.316858E-01  0.323268E-01  0.326917E-01
  0.328056E-01  0.327037E-01  0.324296E-01  0.320238E-01  0.315311E-01  0.310067E-01
  0.305007E-01  0.300583E-01  0.297165E-01  0.295008E-01  0.294272E-01  0.295008E-01
  0.297165E-01  0.300583E-01  0.305007E-01  0.310067E-01  0.315311E-01  0.320238E-01
  0.324296E-01  0.327037E-01  0.328056E-01  0.326917E-01  0.323268E-01  0.316858E-01
  0.307996E-01  0.282080E-01  0.265169E-01  0.248333E-01  0.233451E-01  0.222340E-01
  0.216402E-01  0.216402E-01  0.222340E-01  0.233451E-01  0.248333E-01  0.265169E-01
  0.282080E-01  0.297417E-01  0.310009E-01  0.319199E-01  0.324669E-01  0.326830E-01
  0.326335E-01  0.323821E-01  0.319843E-01  0.314932E-01  0.309711E-01  0.304764E-01
  0.300583E-01  0.297579E-01  0.296006E-01  0.296006E-01  0.297579E-01  0.300583E-01
  0.304764E-01  0.309711E-01  0.314932E-01  0.319843E-01  0.323821E-01  0.326335E-01
  0.326830E-01  0.324669E-01  0.319199E-01  0.310009E-01  0.297417E-01  0.282080E-01
  0.241399E-01  0.216870E-01  0.194145E-01  0.175803E-01  0.163938E-01  0.159838E-01
  0.163938E-01  0.175803E-01  0.194145E-01  0.216870E-01  0.241399E-01  0.265169E-01
  0.286118E-01  0.302930E-01  0.315074E-01  0.322497E-01  0.325719E-01  0.325761E-01
  0.323491E-01  0.319631E-01  0.314800E-01  0.309711E-01  0.305007E-01  0.301231E-01
  0.298802E-01  0.297958E-01  0.298802E-01  0.301231E-01  0.305007E-01  0.309711E-01
  0.314800E-01  0.319631E-01  0.323491E-01  0.325761E-01  0.325719E-01  0.322497E-01
  0.315074E-01  0.302930E-01  0.286118E-01  0.265169E-01  0.241399E-01  0.183519E-01
  0.151739E-01  0.125053E-01  0.106142E-01  0.964427E-02  0.964427E-02  0.106142E-01
  0.125053E-01  0.151739E-01  0.183519E-01  0.216870E-01  0.248333E-01  0.275342E-01
  0.296522E-01  0.311554E-01  0.320778E-01  0.324946E-01  0.325437E-01  0.323373E-01
  0.319631E-01  0.314932E-01  0.310067E-01  0.305738E-01  0.302513E-01  0.300799E-01
  0.300799E-01  0.302513E-01  0.305738E-01  0.310067E-01  0.314932E-01  0.319631E-01
  0.323373E-01  0.325437E-01  0.324946E-01  0.320778E-01  0.311554E-01  0.296522E-01
  0.275342E-01  0.248333E-01  0.216870E-01  0.183519E-01  0.111038E-01  0.769809E-02
  0.528431E-02  0.392317E-02  0.349588E-02  0.392317E-02  0.528431E-02  0.769809E-02
  0.111038E-01  0.151739E-01  0.194145E-01  0.233451E-01  0.266416E-01  0.291658E-01
  0.309191E-01  0.319833E-01  0.324671E-01  0.325437E-01  0.323491E-01  0.319843E-01
  0.315311E-01  0.310761E-01  0.306931E-01  0.304390E-01  0.303509E-01  0.304390E-01
  0.306931E-01  0.310761E-01  0.315311E-01  0.319843E-01  0.323491E-01  0.325437E-01
  0.324671E-01  0.319833E-01  0.309191E-01  0.291658E-01  0.266416E-01  0.233451E-01
  0.194145E-01  0.151739E-01  0.111038E-01  0.392834E-02  0.169625E-02  0.889553E-03
  0.821502E-03  0.821502E-03  0.889553E-03  0.169625E-02  0.392834E-02  0.769809E-02
  0.125053E-01  0.175803E-01  0.222340E-01  0.260522E-01  0.289031E-01  0.308361E-01
  0.319833E-01  0.324946E-01  0.325761E-01  0.323821E-01  0.320238E-01  0.315909E-01
  0.311769E-01  0.308551E-01  0.306806E-01  0.306806E-01  0.308551E-01  0.311769E-01
  0.315909E-01  0.320238E-01  0.323821E-01  0.325761E-01  0.324946E-01  0.319833E-01
  0.308361E-01  0.289031E-01  0.260522E-01  0.222340E-01  0.175803E-01  0.125053E-01
  0.769809E-02  0.392834E-02  0.900225E-03  0.280401E-02  0.566966E-02  0.702269E-02
  0.566966E-02  0.280401E-02  0.900225E-03  0.169625E-02  0.528431E-02  0.106142E-01
  0.163938E-01  0.216402E-01  0.258461E-01  0.289031E-01  0.309191E-01  0.320778E-01
  0.325719E-01  0.326335E-01  0.324296E-01  0.320749E-01  0.316678E-01  0.313040E-01
  0.310538E-01  0.309656E-01  0.310538E-01  0.313040E-01  0.316678E-01  0.320749E-01
  0.324296E-01  0.326335E-01  0.325719E-01  0.320778E-01  0.309191E-01  0.289031E-01
  0.258461E-01  0.216402E-01  0.163938E-01  0.106142E-01  0.528431E-02  0.169625E-02
  0.900225E-03  0.104737E-01  0.212566E-01  0.292441E-01  0.292441E-01  0.212566E-01
  0.104737E-01  0.280401E-02  0.889553E-03  0.392317E-02  0.964427E-02  0.159838E-01
  0.216402E-01  0.260522E-01  0.291658E-01  0.311554E-01  0.322497E-01  0.326830E-01
  0.327037E-01  0.324806E-01  0.321292E-01  0.317549E-01  0.314500E-01  0.312800E-01
  0.312800E-01  0.314500E-01  0.317549E-01  0.321292E-01  0.324806E-01  0.327037E-01
  0.326830E-01  0.322497E-01  0.311554E-01  0.291658E-01  0.260522E-01  0.216402E-01
  0.159838E-01  0.964427E-02  0.392317E-02  0.889553E-03  0.280401E-02  0.104737E-01
  0.456627E-01  0.689277E-01  0.784817E-01  0.689277E-01  0.456627E-01  0.212566E-01
  0.566966E-02  0.821502E-03  0.349588E-02  0.964427E-02  0.163938E-01  0.222340E-01
  0.266416E-01  0.296522E-01  0.315074E-01  0.324669E-01  0.328056E-01  0.327698E-01
  0.325221E-01  0.321777E-01  0.318438E-01  0.316069E-01  0.315214E-01  0.316069E-01
  0.318438E-01  0.321777E-01  0.325221E-01  0.327698E-01  0.328056E-01  0.324669E-01
  0.315074E-01  0.296522E-01  0.266416E-01  0.222340E-01  0.163938E-01  0.964427E-02
  0.349588E-02  0.821502E-03  0.566966E-02  0.212566E-01  0.456627E-01  0.112615E+00
  0.138051E+00  0.138051E+00  0.112615E+00  0.689277E-01  0.292441E-01  0.702269E-02
  0.821502E-03  0.392317E-02  0.106142E-01  0.175803E-01  0.233451E-01  0.275342E-01
  0.302930E-01  0.319199E-01  0.326917E-01  0.329133E-01  0.328129E-01  0.325403E-01
  0.322092E-01  0.319257E-01  0.317635E-01  0.317635E-01  0.319257E-01  0.322092E-01
  0.325403E-01  0.328129E-01  0.329133E-01  0.326917E-01  0.319199E-01  0.302930E-01
  0.275342E-01  0.233451E-01  0.175803E-01  0.106142E-01  0.392317E-02  0.821502E-03
  0.702269E-02  0.292441E-01  0.689277E-01  0.112615E+00  0.162365E+00  0.156202E+00
  0.162365E+00  0.138051E+00  0.784817E-01  0.292441E-01  0.566966E-02  0.889553E-03
  0.528431E-02  0.125053E-01  0.194145E-01  0.248333E-01  0.286118E-01  0.310009E-01
  0.323268E-01  0.328854E-01  0.329813E-01  0.328157E-01  0.325224E-01  0.322156E-01
  0.319916E-01  0.319091E-01  0.319916E-01  0.322156E-01  0.325224E-01  0.328157E-01
  0.329813E-01  0.328854E-01  0.323268E-01  0.310009E-01  0.286118E-01  0.248333E-01
  0.194145E-01  0.125053E-01  0.528431E-02  0.889553E-03  0.566966E-02  0.292441E-01
  0.784817E-01  0.138051E+00  0.162365E+00  0.143343E+00  0.143343E+00  0.156202E+00
  0.138051E+00  0.689277E-01  0.212566E-01  0.280401E-02  0.169625E-02  0.769809E-02
  0.151739E-01  0.216870E-01  0.265169E-01  0.297417E-01  0.316858E-01  0.326691E-01
  0.330141E-01  0.329879E-01  0.327628E-01  0.324597E-01  0.321903E-01  0.320341E-01
  0.320341E-01  0.321903E-01  0.324597E-01  0.327628E-01  0.329879E-01  0.330141E-01
  0.326691E-01  0.316858E-01  0.297417E-01  0.265169E-01  0.216870E-01  0.151739E-01
  0.769809E-02  0.169625E-02  0.280401E-02  0.212566E-01  0.689277E-01  0.138051E+00
  0.156202E+00  0.143343E+00  0.653295E+01  0.143343E+00  0.162365E+00  0.112615E+00
  0.456627E-01  0.104737E-01  0.900225E-03  0.392834E-02  0.111038E-01  0.183519E-01
  0.241399E-01  0.282080E-01  0.307996E-01  0.322631E-01  0.329068E-01  0.330526E-01
  0.329177E-01  0.326446E-01  0.323483E-01  0.321294E-01  0.320488E-01  0.321294E-01
  0.323483E-01  0.326446E-01  0.329177E-01  0.330526E-01  0.329068E-01  0.322631E-01
  0.307996E-01  0.282080E-01  0.241399E-01  0.183519E-01  0.111038E-01  0.392834E-02
  0.900225E-03  0.104737E-01  0.456627E-01  0.112615E+00  0.162365E+00  0.143343E+00
  0.653295E+01  0.143343E+00  0.156202E+00  0.138051E+00  0.689277E-01  0.212566E-01
  0.280401E-02  0.169625E-02  0.769809E-02  0.151739E-01  0.216870E-01  0.265169E-01
  0.297417E-01  0.316858E-01  0.326691E-01  0.330141E-01  0.329879E-01  0.327628E-01
  0.324597E-01  0.321903E-01  0.320341E-01  0.320341E-01  0.321903E-01  0.324597E-01
  0.327628E-01  0.329879E-01  0.330141E-01  0.326691E-01  0.316858E-01  0.297417E-01
  0.265169E-01  0.216870E-01  0.151739E-01  0.769809E-02  0.169625E-02  0.280401E-02
  0.212566E-01  0.689277E-01  0.138051E+00  0.156202E+00  0.143343E+00  0.143343E+00
  0.156202E+00  0.149788E+00  0.890084E-01  0.340926E-01  0.705390E-02  0.856042E-03
  0.485725E-02  0.120812E-01  0.191079E-01  0.246503E-01  0.285254E-01  0.309826E-01
  0.323553E-01  0.329427E-01  0.330559E-01  0.329011E-01  0.326146E-01  0.323116E-01
  0.320895E-01  0.320075E-01  0.320895E-01  0.323116E-01  0.326146E-01  0.329011E-01
  0.330559E-01  0.329427E-01  0.323553E-01  0.309826E-01  0.285254E-01  0.246503E-01
  0.191079E-01  0.120812E-01  0.485725E-02  0.856042E-03  0.705390E-02  0.340926E-01
  0.890084E-01  0.149788E+00  0.156202E+00  0.137454E+00  0.156202E+00  0.138051E+00
  0.890084E-01  0.395553E-01  0.105232E-01  0.111906E-02  0.315289E-02  0.971937E-02
  0.168812E-01  0.228973E-01  0.272968E-01  0.302087E-01  0.319409E-01  0.327828E-01
  0.330456E-01  0.329708E-01  0.327145E-01  0.323929E-01  0.321144E-01  0.319542E-01
  0.319542E-01  0.321144E-01  0.323929E-01  0.327145E-01  0.329708E-01  0.330456E-01
  0.327828E-01  0.319409E-01  0.302087E-01  0.272968E-01  0.228973E-01  0.168812E-01
  0.971937E-02  0.315289E-02  0.111906E-02  0.105232E-01  0.395553E-01  0.890084E-01
  0.138051E+00  0.158797E+00  0.158797E+00  0.138051E+00  0.689277E-01  0.340926E-01
  0.105232E-01  0.138689E-02  0.241424E-02  0.827013E-02  0.152568E-01  0.214632E-01
  0.261995E-01  0.294578E-01  0.314860E-01  0.325653E-01  0.329761E-01  0.329844E-01
  0.327649E-01  0.324378E-01  0.321132E-01  0.318807E-01  0.317961E-01  0.318807E-01
  0.321132E-01  0.324378E-01  0.327649E-01  0.329844E-01  0.329761E-01  0.325653E-01
  0.314860E-01  0.294578E-01  0.261995E-01  0.214632E-01  0.152568E-01  0.827013E-02
  0.241424E-02  0.138689E-02  0.105232E-01  0.340926E-01  0.689277E-01  0.100376E+00
  0.112573E+00  0.100376E+00  0.689277E-01  0.212566E-01  0.705390E-02  0.111906E-02
  0.241424E-02  0.778617E-02  0.144042E-01  0.205247E-01  0.253739E-01  0.288289E-01
  0.310631E-01  0.323296E-01  0.328712E-01  0.329582E-01  0.327765E-01  0.324520E-01
  0.320923E-01  0.317947E-01  0.316275E-01  0.316275E-01  0.317947E-01  0.320923E-01
  0.324520E-01  0.327765E-01  0.329582E-01  0.328712E-01  0.323296E-01  0.310631E-01
  0.288289E-01  0.253739E-01  0.205247E-01  0.144042E-01  0.778617E-02  0.241424E-02
  0.111906E-02  0.705390E-02  0.212566E-01  0.394846E-01  0.525177E-01  0.525177E-01
  0.394846E-01  0.212566E-01  0.280401E-02  0.856042E-03  0.315289E-02  0.827013E-02
  0.144042E-01  0.201982E-01  0.249306E-01  0.284104E-01  0.307375E-01  0.321188E-01
  0.327589E-01  0.329104E-01  0.327628E-01  0.324449E-01  0.320592E-01  0.317058E-01
  0.314603E-01  0.313731E-01  0.314603E-01  0.317058E-01  0.320592E-01  0.324449E-01
  0.327628E-01  0.329104E-01  0.327589E-01  0.321188E-01  0.307375E-01  0.284104E-01
  0.249306E-01  0.201982E-01  0.144042E-01  0.827013E-02  0.315289E-02  0.856042E-03
  0.280401E-02  0.858134E-02  0.150600E-01  0.179110E-01  0.150600E-01  0.858134E-02
  0.280401E-02  0.169625E-02  0.485725E-02  0.971937E-02  0.152568E-01  0.205247E-01
  0.249306E-01  0.282636E-01  0.305604E-01  0.319729E-01  0.326657E-01  0.328601E-01
  0.327376E-01  0.324263E-01  0.320217E-01  0.316219E-01  0.313063E-01  0.311335E-01
  0.311335E-01  0.313063E-01  0.316219E-01  0.320217E-01  0.324263E-01  0.327376E-01
  0.328601E-01  0.326657E-01  0.319729E-01  0.305604E-01  0.282636E-01  0.249306E-01
  0.205247E-01  0.152568E-01  0.971937E-02  0.485725E-02  0.169625E-02  0.787809E-03
  0.162386E-02  0.272085E-02  0.272085E-02  0.162386E-02  0.787809E-03  0.169625E-02
  0.769809E-02  0.120812E-01  0.168812E-01  0.214632E-01  0.253739E-01  0.284104E-01
  0.305604E-01  0.319211E-01  0.326132E-01  0.328225E-01  0.327133E-01  0.324050E-01
  0.319867E-01  0.315495E-01  0.311743E-01  0.309223E-01  0.308346E-01  0.309223E-01
  0.311743E-01  0.315495E-01  0.319867E-01  0.324050E-01  0.327133E-01  0.328225E-01
  0.326132E-01  0.319211E-01  0.305604E-01  0.284104E-01  0.253739E-01  0.214632E-01
  0.168812E-01  0.120812E-01  0.769809E-02  0.433152E-02  0.226753E-02  0.133211E-02
  0.109570E-02  0.133211E-02  0.226753E-02  0.433152E-02  0.769809E-02  0.151739E-01
  0.191079E-01  0.228973E-01  0.261995E-01  0.288289E-01  0.307375E-01  0.319729E-01
  0.326132E-01  0.328086E-01  0.326985E-01  0.323890E-01  0.319602E-01  0.314947E-01
  0.310708E-01  0.307505E-01  0.305792E-01  0.305792E-01  0.307505E-01  0.310708E-01
  0.314947E-01  0.319602E-01  0.323890E-01  0.326985E-01  0.328086E-01  0.326132E-01
  0.319729E-01  0.307375E-01  0.288289E-01  0.261995E-01  0.228973E-01  0.191079E-01
  0.151739E-01  0.115365E-01  0.860128E-02  0.661446E-02  0.563591E-02  0.563591E-02
  0.661446E-02  0.860128E-02  0.115365E-01  0.151739E-01  0.216870E-01  0.246503E-01
  0.272968E-01  0.294578E-01  0.310631E-01  0.321188E-01  0.326657E-01  0.328225E-01
  0.326985E-01  0.323832E-01  0.319457E-01  0.314606E-01  0.309999E-01  0.306237E-01
  0.303795E-01  0.302945E-01  0.303795E-01  0.306237E-01  0.309999E-01  0.314606E-01
  0.319457E-01  0.323832E-01  0.326985E-01  0.328225E-01  0.326657E-01  0.321188E-01
  0.310631E-01  0.294578E-01  0.272968E-01  0.246503E-01  0.216870E-01  0.186716E-01