 CRYSTAL
 PRIMVEC
   -1.984414532    0.000000000    1.984414532
    0.000000000    1.984414532    1.984414532
   -1.984414532    1.984414532    0.000000000
 PRIMCOORD
           1           1
Al        0.000000000    0.000000000    0.000000000
BEGIN_BLOCK_DATAGRID_3D
3D_PWSCF
DATAGRID_3D_UNKNOWN
          41          41          41
  0.000000  0.000000  0.000000
   -1.984415    0.000000    1.984415
    0.000000    1.984415    1.984415
   -1.984415    1.984415    0.000000
  0.237502E+04  0.529645E+02  0.105306E+02  0.625001E+01  0.341264E+01  0.170816E+01
  0.824170E+00  0.396763E+00  0.197636E+00  0.106982E+00  0.663891E-01  0.484583E-01
  0.405849E-01  0.370323E-01  0.352484E-01  0.342095E-01  0.334925E-01  0.329316E-01
  0.324922E-01  0.321294E-01  0.320488E-01  0.321294E-01  0.324922E-01  0.329316E-01
  0.334925E-01  0.342095E-01  0.352484E-01  0.370323E-01  0.405849E-01  0.484583E-01
  0.663891E-01  0.106982E+00  0.197636E+00  0.396763E+00  0.824170E+00  0.170816E+01
  0.341264E+01  0.625001E+01  0.105306E+02  0.529645E+02  0.237502E+04  0.529645E+02
  0.130469E+02  0.750812E+01  0.439349E+01  0.229585E+01  0.113177E+01  0.547323E+00
  0.268571E+00  0.139575E+00  0.810888E-01  0.549852E-01  0.434737E-01  0.383650E-01
  0.359429E-01  0.346292E-01  0.337892E-01  0.331624E-01  0.326599E-01  0.322910E-01
  0.320341E-01  0.320341E-01  0.322910E-01  0.326599E-01  0.331624E-01  0.337892E-01
  0.346292E-01  0.359429E-01  0.383650E-01  0.434737E-01  0.549852E-01  0.810888E-01
  0.139575E+00  0.268571E+00  0.547323E+00  0.113177E+01  0.229585E+01  0.439349E+01
  0.750812E+01  0.130469E+02  0.529645E+02  0.529645E+02  0.105306E+02  0.750812E+01
  0.479072E+01  0.268040E+01  0.138416E+01  0.688307E+00  0.341018E+00  0.174981E+00
  0.978160E-01  0.626849E-01  0.469517E-01  0.399456E-01  0.367203E-01  0.350566E-01
  0.340601E-01  0.333543E-01  0.327925E-01  0.323516E-01  0.319916E-01  0.319091E-01
  0.319916E-01  0.323516E-01  0.327925E-01  0.333543E-01  0.340601E-01  0.350566E-01
  0.367203E-01  0.399456E-01  0.469517E-01  0.626849E-01  0.978160E-01  0.174981E+00
  0.341018E+00  0.688307E+00  0.138416E+01  0.268040E+01  0.479072E+01  0.750812E+01
  0.105306E+02  0.130469E+02  0.105306E+02  0.625001E+01  0.439349E+01  0.268040E+01
  0.148314E+01  0.775505E+00  0.396757E+00  0.206074E+00  0.113888E+00  0.705871E-01
  0.506950E-01  0.416860E-01  0.375540E-01  0.354919E-01  0.343112E-01  0.335136E-01
  0.328929E-01  0.323872E-01  0.320158E-01  0.317635E-01  0.317635E-01  0.320158E-01
  0.323872E-01  0.328929E-01  0.335136E-01  0.343112E-01  0.354919E-01  0.375540E-01
  0.416860E-01  0.506950E-01  0.705871E-01  0.113888E+00  0.206074E+00  0.396757E+00
  0.775505E+00  0.148314E+01  0.268040E+01  0.439349E+01  0.625001E+01  0.750812E+01
  0.750812E+01  0.625001E+01  0.341264E+01  0.229585E+01  0.138416E+01  0.775505E+00
  0.417869E+00  0.224505E+00  0.125708E+00  0.772218E-01  0.541360E-01  0.433842E-01
  0.383812E-01  0.359180E-01  0.345431E-01  0.336470E-01  0.329662E-01  0.324031E-01
  0.319586E-01  0.316069E-01  0.315214E-01  0.316069E-01  0.319586E-01  0.324031E-01
  0.329662E-01  0.336470E-01  0.345431E-01  0.359180E-01  0.383812E-01  0.433842E-01
  0.541360E-01  0.772218E-01  0.125708E+00  0.224505E+00  0.417869E+00  0.775505E+00
  0.138416E+01  0.229585E+01  0.341264E+01  0.439349E+01  0.479072E+01  0.439349E+01
  0.341264E+01  0.170816E+01  0.113177E+01  0.688307E+00  0.396757E+00  0.224505E+00
  0.130078E+00  0.810420E-01  0.565889E-01  0.447601E-01  0.391034E-01  0.363003E-01
  0.347484E-01  0.337577E-01  0.330191E-01  0.324048E-01  0.318961E-01  0.314500E-01
  0.312800E-01  0.312800E-01  0.314500E-01  0.318961E-01  0.324048E-01  0.330191E-01
  0.337577E-01  0.347484E-01  0.363003E-01  0.391034E-01  0.447601E-01  0.565889E-01
  0.810420E-01  0.130078E+00  0.224505E+00  0.396757E+00  0.688307E+00  0.113177E+01
  0.170816E+01  0.229585E+01  0.268040E+01  0.268040E+01  0.229585E+01  0.170816E+01
  0.824170E+00  0.547323E+00  0.341018E+00  0.206074E+00  0.125708E+00  0.810420E-01
  0.574811E-01  0.455353E-01  0.396020E-01  0.365927E-01  0.349135E-01  0.338460E-01
  0.330570E-01  0.323995E-01  0.318358E-01  0.313909E-01  0.310538E-01  0.309656E-01
  0.310538E-01  0.313040E-01  0.318358E-01  0.323995E-01  0.330570E-01  0.338460E-01
  0.349135E-01  0.365927E-01  0.396020E-01  0.455353E-01  0.574811E-01  0.810420E-01
  0.125708E+00  0.206074E+00  0.341018E+00  0.547323E+00  0.824170E+00  0.113177E+01
  0.138416E+01  0.148314E+01  0.138416E+01  0.113177E+01  0.824170E+00  0.396763E+00
  0.268571E+00  0.174981E+00  0.113888E+00  0.772218E-01  0.565889E-01  0.455353E-01
  0.397808E-01  0.367526E-01  0.350216E-01  0.339089E-01  0.330828E-01  0.323913E-01
  0.317834E-01  0.312776E-01  0.308551E-01  0.306806E-01  0.306806E-01  0.308551E-01
  0.311769E-01  0.317834E-01  0.323913E-01  0.330828E-01  0.339089E-01  0.350216E-01
  0.367526E-01  0.397808E-01  0.455353E-01  0.565889E-01  0.772218E-01  0.113888E+00
  0.174981E+00  0.268571E+00  0.396763E+00  0.547323E+00  0.688307E+00  0.775505E+00
  0.775505E+00  0.688307E+00  0.547323E+00  0.396763E+00  0.197636E+00  0.139575E+00
  0.978160E-01  0.705871E-01  0.541360E-01  0.447601E-01  0.396020E-01  0.367526E-01
  0.350595E-01  0.339416E-01  0.330982E-01  0.323839E-01  0.317435E-01  0.311887E-01
  0.306931E-01  0.304390E-01  0.303509E-01  0.304390E-01  0.306931E-01  0.310761E-01
  0.317435E-01  0.323839E-01  0.330982E-01  0.339416E-01  0.350595E-01  0.367526E-01
  0.396020E-01  0.447601E-01  0.541360E-01  0.705871E-01  0.978160E-01  0.139575E+00
  0.197636E+00  0.268571E+00  0.341018E+00  0.396757E+00  0.417869E+00  0.396757E+00
  0.341018E+00  0.268571E+00  0.197636E+00  0.106982E+00  0.810888E-01  0.626849E-01
  0.506950E-01  0.433842E-01  0.391034E-01  0.365927E-01  0.350216E-01  0.339416E-01
  0.331034E-01  0.323799E-01  0.317186E-01  0.311281E-01  0.305738E-01  0.302513E-01
  0.300799E-01  0.300799E-01  0.302513E-01  0.305738E-01  0.310067E-01  0.317186E-01
  0.323799E-01  0.331034E-01  0.339416E-01  0.350216E-01  0.365927E-01  0.391034E-01
  0.433842E-01  0.506950E-01  0.626849E-01  0.810888E-01  0.106982E+00  0.139575E+00
  0.174981E+00  0.206074E+00  0.224505E+00  0.224505E+00  0.206074E+00  0.174981E+00
  0.139575E+00  0.106982E+00  0.663891E-01  0.549852E-01  0.469517E-01  0.416860E-01
  0.383812E-01  0.363003E-01  0.349135E-01  0.339089E-01  0.330982E-01  0.323799E-01
  0.317099E-01  0.310971E-01  0.305007E-01  0.301231E-01  0.298802E-01  0.297958E-01
  0.298802E-01  0.301231E-01  0.305007E-01  0.309711E-01  0.317099E-01  0.323799E-01
  0.330982E-01  0.339089E-01  0.349135E-01  0.363003E-01  0.383812E-01  0.416860E-01
  0.469517E-01  0.549852E-01  0.663891E-01  0.810888E-01  0.978160E-01  0.113888E+00
  0.125708E+00  0.130078E+00  0.125708E+00  0.113888E+00  0.978160E-01  0.810888E-01
  0.663891E-01  0.484583E-01  0.434737E-01  0.399456E-01  0.375540E-01  0.359180E-01
  0.347484E-01  0.338460E-01  0.330828E-01  0.323839E-01  0.317186E-01  0.310971E-01
  0.304764E-01  0.300583E-01  0.297579E-01  0.296006E-01  0.296006E-01  0.297579E-01
  0.300583E-01  0.304764E-01  0.309711E-01  0.317186E-01  0.323839E-01  0.330828E-01
  0.338460E-01  0.347484E-01  0.359180E-01  0.375540E-01  0.399456E-01  0.434737E-01
  0.484583E-01  0.549852E-01  0.626849E-01  0.705871E-01  0.772218E-01  0.810420E-01
  0.810420E-01  0.772218E-01  0.705871E-01  0.626849E-01  0.549852E-01  0.484583E-01
  0.405849E-01  0.383650E-01  0.367203E-01  0.354919E-01  0.345431E-01  0.337577E-01
  0.330570E-01  0.323913E-01  0.317435E-01  0.311281E-01  0.305007E-01  0.300583E-01
  0.297165E-01  0.295008E-01  0.294272E-01  0.295008E-01  0.297165E-01  0.300583E-01
  0.305007E-01  0.310067E-01  0.317435E-01  0.323913E-01  0.330570E-01  0.337577E-01
  0.345431E-01  0.354919E-01  0.367203E-01  0.383650E-01  0.405849E-01  0.434737E-01
  0.469517E-01  0.506950E-01  0.541360E-01  0.565889E-01  0.574811E-01  0.565889E-01
  0.541360E-01  0.506950E-01  0.469517E-01  0.434737E-01  0.405849E-01  0.370323E-01
  0.359429E-01  0.350566E-01  0.343112E-01  0.336470E-01  0.330191E-01  0.323995E-01
  0.317834E-01  0.311887E-01  0.305738E-01  0.301231E-01  0.297579E-01  0.295008E-01
  0.293688E-01  0.293688E-01  0.295008E-01  0.297579E-01  0.301231E-01  0.305738E-01
  0.310761E-01  0.317834E-01  0.323995E-01  0.330191E-01  0.336470E-01  0.343112E-01
  0.350566E-01  0.359429E-01  0.370323E-01  0.383650E-01  0.399456E-01  0.416860E-01
  0.433842E-01  0.447601E-01  0.455353E-01  0.455353E-01  0.447601E-01  0.433842E-01
  0.416860E-01  0.399456E-01  0.383650E-01  0.370323E-01  0.352484E-01  0.346292E-01
  0.340601E-01  0.335136E-01  0.329662E-01  0.324048E-01  0.318358E-01  0.312776E-01
  0.306931E-01  0.302513E-01  0.298802E-01  0.296006E-01  0.294272E-01  0.293688E-01
  0.294272E-01  0.296006E-01  0.298802E-01  0.302513E-01  0.306931E-01  0.311769E-01
  0.318358E-01  0.324048E-01  0.329662E-01  0.335136E-01  0.340601E-01  0.346292E-01
  0.352484E-01  0.359429E-01  0.367203E-01  0.375540E-01  0.383812E-01  0.391034E-01
  0.396020E-01  0.397808E-01  0.396020E-01  0.391034E-01  0.383812E-01  0.375540E-01
  0.367203E-01  0.359429E-01  0.352484E-01  0.342095E-01  0.337892E-01  0.333543E-01
  0.328929E-01  0.324031E-01  0.318961E-01  0.313909E-01  0.308551E-01  0.304390E-01
  0.300799E-01  0.297958E-01  0.296006E-01  0.295008E-01  0.295008E-01  0.296006E-01
  0.297958E-01  0.300799E-01  0.304390E-01  0.308551E-01  0.313040E-01  0.318961E-01
  0.324031E-01  0.328929E-01  0.333543E-01  0.337892E-01  0.342095E-01  0.346292E-01
  0.350566E-01  0.354919E-01  0.359180E-01  0.363003E-01  0.365927E-01  0.367526E-01
  0.367526E-01  0.365927E-01  0.363003E-01  0.359180E-01  0.354919E-01  0.350566E-01
  0.346292E-01  0.342095E-01  0.334925E-01  0.331624E-01  0.327925E-01  0.323872E-01
  0.319586E-01  0.314500E-01  0.310538E-01  0.306806E-01  0.303509E-01  0.300799E-01
  0.298802E-01  0.297579E-01  0.297165E-01  0.297579E-01  0.298802E-01  0.300799E-01
  0.303509E-01  0.306806E-01  0.310538E-01  0.314500E-01  0.319586E-01  0.323872E-01
  0.327925E-01  0.331624E-01  0.334925E-01  0.337892E-01  0.340601E-01  0.343112E-01
  0.345431E-01  0.347484E-01  0.349135E-01  0.350216E-01  0.350595E-01  0.350216E-01
  0.349135E-01  0.347484E-01  0.345431E-01  0.343112E-01  0.340601E-01  0.337892E-01
  0.334925E-01  0.329316E-01  0.326599E-01  0.323516E-01  0.320158E-01  0.316069E-01
  0.312800E-01  0.309656E-01  0.306806E-01  0.304390E-01  0.302513E-01  0.301231E-01
  0.300583E-01  0.300583E-01  0.301231E-01  0.302513E-01  0.304390E-01  0.306806E-01
  0.309656E-01  0.312800E-01  0.316069E-01  0.320158E-01  0.323516E-01  0.326599E-01
  0.329316E-01  0.331624E-01  0.333543E-01  0.335136E-01  0.336470E-01  0.337577E-01
  0.338460E-01  0.339089E-01  0.339416E-01  0.339416E-01  0.339089E-01  0.338460E-01
  0.337577E-01  0.336470E-01  0.335136E-01  0.333543E-01  0.331624E-01  0.329316E-01
  0.324922E-01  0.322910E-01  0.319916E-01  0.317635E-01  0.315214E-01  0.312800E-01
  0.310538E-01  0.308551E-01  0.306931E-01  0.305738E-01  0.305007E-01  0.304764E-01
  0.305007E-01  0.305738E-01  0.306931E-01  0.308551E-01  0.310538E-01  0.312800E-01
  0.315214E-01  0.317635E-01  0.319916E-01  0.322910E-01  0.324922E-01  0.326599E-01
  0.327925E-01  0.328929E-01  0.329662E-01  0.330191E-01  0.330570E-01  0.330828E-01
  0.330982E-01  0.331034E-01  0.330982E-01  0.330828E-01  0.330570E-01  0.330191E-01
  0.329662E-01  0.328929E-01  0.327925E-01  0.326599E-01  0.324922E-01  0.321294E-01
  0.320341E-01  0.319091E-01  0.317635E-01  0.316069E-01  0.314500E-01  0.313040E-01
  0.311769E-01  0.310761E-01  0.310067E-01  0.309711E-01  0.309711E-01  0.310067E-01
  0.310761E-01  0.311769E-01  0.313040E-01  0.314500E-01  0.316069E-01  0.317635E-01
  0.319091E-01  0.320341E-01  0.321294E-01  0.322910E-01  0.323516E-01  0.323872E-01
  0.324031E-01  0.324048E-01  0.323995E-01  0.323913E-01  0.323839E-01  0.323799E-01
  0.323799E-01  0.323839E-01  0.323913E-01  0.323995E-01  0.324048E-01  0.324031E-01
  0.323872E-01  0.323516E-01  0.322910E-01  0.321294E-01  0.320488E-01  0.320341E-01
  0.319916E-01  0.320158E-01  0.319586E-01  0.318961E-01  0.318358E-01  0.317834E-01
  0.317435E-01  0.317186E-01  0.317099E-01  0.317186E-01  0.317435E-01  0.317834E-01
  0.318358E-01  0.318961E-01  0.319586E-01  0.320158E-01  0.319916E-01  0.320341E-01
  0.320488E-01  0.320341E-01  0.319916E-01  0.319257E-01  0.318438E-01  0.317549E-01
  0.318358E-01  0.315909E-01  0.315311E-01  0.314932E-01  0.314800E-01  0.317186E-01
  0.315311E-01  0.315909E-01  0.316678E-01  0.317549E-01  0.319586E-01  0.319257E-01
  0.319916E-01  0.320341E-01  0.320488E-01  0.321294E-01  0.322910E-01  0.323516E-01
  0.323872E-01  0.324031E-01  0.324048E-01  0.323995E-01  0.323913E-01  0.323839E-01
  0.323799E-01  0.323799E-01  0.323839E-01  0.323913E-01  0.323995E-01  0.324048E-01
  0.324031E-01  0.323872E-01  0.323516E-01  0.322910E-01  0.321294E-01  0.320341E-01
  0.319091E-01  0.317635E-01  0.316069E-01  0.314500E-01  0.313040E-01  0.311769E-01
  0.310761E-01  0.310067E-01  0.309711E-01  0.309711E-01  0.310067E-01  0.310761E-01
  0.311769E-01  0.313040E-01  0.314500E-01  0.316069E-01  0.317635E-01  0.319091E-01
  0.320341E-01  0.321294E-01  0.324922E-01  0.326599E-01  0.327925E-01  0.328929E-01
  0.329662E-01  0.330191E-01  0.330570E-01  0.330828E-01  0.330982E-01  0.331034E-01
  0.330982E-01  0.330828E-01  0.330570E-01  0.330191E-01  0.329662E-01  0.328929E-01
  0.327925E-01  0.326599E-01  0.324922E-01  0.322910E-01  0.319916E-01  0.317635E-01
  0.315214E-01  0.312800E-01  0.310538E-01  0.308551E-01  0.306931E-01  0.305738E-01
  0.305007E-01  0.304764E-01  0.305007E-01  0.305738E-01  0.306931E-01  0.308551E-01
  0.310538E-01  0.312800E-01  0.315214E-01  0.317635E-01  0.319916E-01  0.322910E-01
  0.324922E-01  0.329316E-01  0.331624E-01  0.333543E-01  0.335136E-01  0.336470E-01
  0.337577E-01  0.338460E-01  0.339089E-01  0.339416E-01  0.339416E-01  0.339089E-01
  0.338460E-01  0.337577E-01  0.336470E-01  0.335136E-01  0.333543E-01  0.331624E-01
  0.329316E-01  0.326599E-01  0.323516E-01  0.319257E-01  0.316069E-01  0.312800E-01
  0.309656E-01  0.306806E-01  0.304390E-01  0.302513E-01  0.301231E-01  0.300583E-01
  0.300583E-01  0.301231E-01  0.302513E-01  0.304390E-01  0.306806E-01  0.309656E-01
  0.312800E-01  0.316069E-01  0.320158E-01  0.323516E-01  0.326599E-01  0.329316E-01
  0.334925E-01  0.337892E-01  0.340601E-01  0.343112E-01  0.345431E-01  0.347484E-01
  0.349135E-01  0.350216E-01  0.350595E-01  0.350216E-01  0.349135E-01  0.347484E-01
  0.345431E-01  0.343112E-01  0.340601E-01  0.337892E-01  0.334925E-01  0.331624E-01
  0.327925E-01  0.323872E-01  0.318438E-01  0.314500E-01  0.310538E-01  0.306806E-01
  0.303509E-01  0.300799E-01  0.298802E-01  0.297579E-01  0.297165E-01  0.297579E-01
  0.298802E-01  0.300799E-01  0.303509E-01  0.306806E-01  0.310538E-01  0.314500E-01
  0.319586E-01  0.323872E-01  0.327925E-01  0.331624E-01  0.334925E-01  0.342095E-01
  0.346292E-01  0.350566E-01  0.354919E-01  0.359180E-01  0.363003E-01  0.365927E-01
  0.367526E-01  0.367526E-01  0.365927E-01  0.363003E-01  0.359180E-01  0.354919E-01
  0.350566E-01  0.346292E-01  0.342095E-01  0.337892E-01  0.333543E-01  0.328929E-01
  0.324031E-01  0.317549E-01  0.313040E-01  0.308551E-01  0.304390E-01  0.300799E-01
  0.297958E-01  0.296006E-01  0.295008E-01  0.295008E-01  0.296006E-01  0.297958E-01
  0.300799E-01  0.304390E-01  0.308551E-01  0.313909E-01  0.318961E-01  0.324031E-01
  0.328929E-01  0.333543E-01  0.337892E-01  0.342095E-01  0.352484E-01  0.359429E-01
  0.367203E-01  0.375540E-01  0.383812E-01  0.391034E-01  0.396020E-01  0.397808E-01
  0.396020E-01  0.391034E-01  0.383812E-01  0.375540E-01  0.367203E-01  0.359429E-01
  0.352484E-01  0.346292E-01  0.340601E-01  0.335136E-01  0.329662E-01  0.324048E-01
  0.318358E-01  0.311769E-01  0.306931E-01  0.302513E-01  0.298802E-01  0.296006E-01
  0.294272E-01  0.293688E-01  0.294272E-01  0.296006E-01  0.298802E-01  0.302513E-01
  0.306931E-01  0.312776E-01  0.318358E-01  0.324048E-01  0.329662E-01  0.335136E-01
  0.340601E-01  0.346292E-01  0.352484E-01  0.370323E-01  0.383650E-01  0.399456E-01
  0.416860E-01  0.433842E-01  0.447601E-01  0.455353E-01  0.455353E-01  0.447601E-01
  0.433842E-01  0.416860E-01  0.399456E-01  0.383650E-01  0.370323E-01  0.359429E-01
  0.350566E-01  0.343112E-01  0.336470E-01  0.330191E-01  0.323995E-01  0.315909E-01
  0.310761E-01  0.305738E-01  0.301231E-01  0.297579E-01  0.295008E-01  0.293688E-01
  0.293688E-01  0.295008E-01  0.297579E-01  0.301231E-01  0.305738E-01  0.311887E-01
  0.317834E-01  0.323995E-01  0.330191E-01  0.336470E-01  0.343112E-01  0.350566E-01
  0.359429E-01  0.370323E-01  0.405849E-01  0.434737E-01  0.469517E-01  0.506950E-01
  0.541360E-01  0.565889E-01  0.574811E-01  0.565889E-01  0.541360E-01  0.506950E-01
  0.469517E-01  0.434737E-01  0.405849E-01  0.383650E-01  0.367203E-01  0.354919E-01
  0.345431E-01  0.337577E-01  0.330570E-01  0.323913E-01  0.315311E-01  0.310067E-01
  0.305007E-01  0.300583E-01  0.297165E-01  0.295008E-01  0.294272E-01  0.295008E-01
  0.297165E-01  0.300583E-01  0.305007E-01  0.311281E-01  0.317435E-01  0.323913E-01
  0.330570E-01  0.337577E-01  0.345431E-01  0.354919E-01  0.367203E-01  0.383650E-01
  0.405849E-01  0.484583E-01  0.549852E-01  0.626849E-01  0.705871E-01  0.772218E-01
  0.810420E-01  0.810420E-01  0.772218E-01  0.705871E-01  0.626849E-01  0.549852E-01
  0.484583E-01  0.434737E-01  0.399456E-01  0.375540E-01  0.359180E-01  0.347484E-01
  0.338460E-01  0.330828E-01  0.323839E-01  0.314932E-01  0.309711E-01  0.304764E-01
  0.300583E-01  0.297579E-01  0.296006E-01  0.296006E-01  0.297579E-01  0.300583E-01
  0.304764E-01  0.310971E-01  0.317186E-01  0.323839E-01  0.330828E-01  0.338460E-01
  0.347484E-01  0.359180E-01  0.375540E-01  0.399456E-01  0.434737E-01  0.484583E-01
  0.663891E-01  0.810888E-01  0.978160E-01  0.113888E+00  0.125708E+00  0.130078E+00
  0.125708E+00  0.113888E+00  0.978160E-01  0.810888E-01  0.663891E-01  0.549852E-01
  0.469517E-01  0.416860E-01  0.383812E-01  0.363003E-01  0.349135E-01  0.339089E-01
  0.330982E-01  0.323799E-01  0.314800E-01  0.309711E-01  0.305007E-01  0.301231E-01
  0.298802E-01  0.297958E-01  0.298802E-01  0.301231E-01  0.305007E-01  0.310971E-01
  0.317099E-01  0.323799E-01  0.330982E-01  0.339089E-01  0.349135E-01  0.363003E-01
  0.383812E-01  0.416860E-01  0.469517E-01  0.549852E-01  0.663891E-01  0.106982E+00
  0.139575E+00  0.174981E+00  0.206074E+00  0.224505E+00  0.224505E+00  0.206074E+00
  0.174981E+00  0.139575E+00  0.106982E+00  0.810888E-01  0.626849E-01  0.506950E-01
  0.433842E-01  0.391034E-01  0.365927E-01  0.350216E-01  0.339416E-01  0.331034E-01
  0.323799E-01  0.317186E-01  0.310067E-01  0.305738E-01  0.302513E-01  0.300799E-01
  0.300799E-01  0.302513E-01  0.305738E-01  0.311281E-01  0.317186E-01  0.323799E-01
  0.331034E-01  0.339416E-01  0.350216E-01  0.365927E-01  0.391034E-01  0.433842E-01
  0.506950E-01  0.626849E-01  0.810888E-01  0.106982E+00  0.197636E+00  0.268571E+00
  0.341018E+00  0.396757E+00  0.417869E+00  0.396757E+00  0.341018E+00  0.268571E+00
  0.197636E+00  0.139575E+00  0.978160E-01  0.705871E-01  0.541360E-01  0.447601E-01
  0.396020E-01  0.367526E-01  0.350595E-01  0.339416E-01  0.330982E-01  0.323839E-01
  0.315311E-01  0.310761E-01  0.306931E-01  0.304390E-01  0.303509E-01  0.304390E-01
  0.306931E-01  0.311887E-01  0.317435E-01  0.323839E-01  0.330982E-01  0.339416E-01
  0.350595E-01  0.367526E-01  0.396020E-01  0.447601E-01  0.541360E-01  0.705871E-01
  0.978160E-01  0.139575E+00  0.197636E+00  0.396763E+00  0.547323E+00  0.688307E+00
  0.775505E+00  0.775505E+00  0.688307E+00  0.547323E+00  0.396763E+00  0.268571E+00
  0.174981E+00  0.113888E+00  0.772218E-01  0.565889E-01  0.455353E-01  0.397808E-01
  0.367526E-01  0.350216E-01  0.339089E-01  0.330828E-01  0.323913E-01  0.315909E-01
  0.311769E-01  0.308551E-01  0.306806E-01  0.306806E-01  0.308551E-01  0.312776E-01
  0.317834E-01  0.323913E-01  0.330828E-01  0.339089E-01  0.350216E-01  0.367526E-01
  0.397808E-01  0.455353E-01  0.565889E-01  0.772218E-01  0.113888E+00  0.174981E+00
  0.268571E+00  0.396763E+00  0.824170E+00  0.113177E+01  0.138416E+01  0.148314E+01
  0.138416E+01  0.113177E+01  0.824170E+00  0.547323E+00  0.341018E+00  0.206074E+00
  0.125708E+00  0.810420E-01  0.574811E-01  0.455353E-01  0.396020E-01  0.365927E-01
  0.349135E-01  0.338460E-01  0.330570E-01  0.323995E-01  0.316678E-01  0.313040E-01
  0.310538E-01  0.309656E-01  0.310538E-01  0.313909E-01  0.318358E-01  0.323995E-01
  0.330570E-01  0.338460E-01  0.349135E-01  0.365927E-01  0.396020E-01  0.455353E-01
  0.574811E-01  0.810420E-01  0.125708E+00  0.206074E+00  0.341018E+00  0.547323E+00
  0.824170E+00  0.170816E+01  0.229585E+01  0.268040E+01  0.268040E+01  0.229585E+01
  0.170816E+01  0.113177E+01  0.688307E+00  0.396757E+00  0.224505E+00  0.130078E+00
  0.810420E-01  0.565889E-01  0.447601E-01  0.391034E-01  0.363003E-01  0.347484E-01
  0.337577E-01  0.330191E-01  0.324048E-01  0.317549E-01  0.314500E-01  0.312800E-01
  0.312800E-01  0.314500E-01  0.318961E-01  0.324048E-01  0.330191E-01  0.337577E-01
  0.347484E-01  0.363003E-01  0.391034E-01  0.447601E-01  0.565889E-01  0.810420E-01
  0.130078E+00  0.224505E+00  0.396757E+00  0.688307E+00  0.113177E+01  0.170816E+01
  0.341264E+01  0.439349E+01  0.479072E+01  0.439349E+01  0.341264E+01  0.229585E+01
  0.138416E+01  0.775505E+00  0.417869E+00  0.224505E+00  0.125708E+00  0.772218E-01
  0.541360E-01  0.433842E-01  0.383812E-01  0.359180E-01  0.345431E-01  0.336470E-01
  0.329662E-01  0.324031E-01  0.319586E-01  0.316069E-01  0.315214E-01  0.316069E-01
  0.319586E-01  0.324031E-01  0.329662E-01  0.336470E-01  0.345431E-01  0.359180E-01
  0.383812E-01  0.433842E-01  0.541360E-01  0.772218E-01  0.125708E+00  0.224505E+00
  0.417869E+00  0.775505E+00  0.138416E+01  0.229585E+01  0.341264E+01  0.625001E+01
  0.750812E+01  0.750812E+01  0.625001E+01  0.439349E+01  0.268040E+01  0.148314E+01
  0.775505E+00  0.396757E+00  0.206074E+00  0.113888E+00  0.705871E-01  0.506950E-01
  0.416860E-01  0.375540E-01  0.354919E-01  0.343112E-01  0.335136E-01  0.328929E-01
  0.323872E-01  0.319257E-01  0.317635E-01  0.317635E-01  0.320158E-01  0.323872E-01
  0.328929E-01  0.335136E-01  0.343112E-01  0.354919E-01  0.375540E-01  0.416860E-01
  0.506950E-01  0.705871E-01  0.113888E+00  0.206074E+00  0.396757E+00  0.775505E+00
  0.148314E+01  0.268040E+01  0.439349E+01  0.625001E+01  0.105306E+02  0.130469E+02
  0.105306E+02  0.750812E+01  0.479072E+01  0.268040E+01  0.138416E+01  0.688307E+00
  0.341018E+00  0.174981E+00  0.978160E-01  0.626849E-01  0.469517E-01  0.399456E-01
  0.367203E-01  0.350566E-01  0.340601E-01  0.333543E-01  0.327925E-01  0.323516E-01
  0.319916E-01  0.319091E-01  0.319916E-01  0.323516E-01  0.327925E-01  0.333543E-01
  0.340601E-01  0.350566E-01  0.367203E-01  0.399456E-01  0.469517E-01  0.626849E-01
  0.978160E-01  0.174981E+00  0.341018E+00  0.688307E+00  0.138416E+01  0.268040E+01
  0.479072E+01  0.750812E+01  0.105306E+02  0.529645E+02  0.529645E+02  0.130469E+02
  0.750812E+01  0.439349E+01  0.229585E+01  0.113177E+01  0.547323E+00  0.268571E+00
  0.139575E+00  0.810888E-01  0.549852E-01  0.434737E-01  0.383650E-01  0.359429E-01
  0.346292E-01  0.337892E-01  0.331624E-01  0.326599E-01  0.322910E-01  0.320341E-01
  0.320341E-01  0.322910E-01  0.326599E-01  0.331624E-01  0.337892E-01  0.346292E-01
  0.359429E-01  0.383650E-01  0.434737E-01  0.549852E-01  0.810888E-01  0.139575E+00
  0.268571E+00  0.547323E+00  0.113177E+01  0.229585E+01  0.439349E+01  0.750812E+01
  0.130469E+02  0.529645E+02  0.237502E+04  0.529645E+02  0.105306E+02  0.625001E+01
  0.341264E+01  0.170816E+01  0.824170E+00  0.396763E+00  0.197636E+00  0.106982E+00
  0.663891E-01  0.484583E-01  0.405849E-01  0.370323E-01  0.352484E-01  0.342095E-01
  0.334925E-01  0.329316E-01  0.324922E-01  0.321294E-01  0.320488E-01  0.321294E-01
  0.324922E-01  0.329316E-01  0.334925E-01  0.342095E-01  0.352484E-01  0.370323E-01
  0.405849E-01  0.484583E-01  0.663891E-01  0.106982E+00  0.197636E+00  0.396763E+00
  0.824170E+00  0.170816E+01  0.341264E+01  0.625001E+01  0.105306E+02  0.529645E+02
  0.237502E+04  0.529645E+02  0.130469E+02  0.750812E+01  0.439349E+01  0.229585E+01
  0.113177E+01  0.547323E+00  0.268571E+00  0.139575E+00  0.810888E-01  0.549852E-01
  0.434737E-01  0.383650E-01  0.359429E-01  0.346292E-01  0.337892E-01  0.331624E-01
  0.326599E-01  0.322910E-01  0.320341E-01  0.320341E-01  0.322910E-01  0.326599E-01
  0.331624E-01  0.337892E-01  0.346292E-01  0.359429E-01  0.383650E-01  0.434737E-01
  0.549852E-01  0.810888E-01  0.139575E+00  0.268571E+00  0.547323E+00  0.113177E+01
  0.229585E+01  0.439349E+01  0.750812E+01  0.130469E+02  0.529645E+02  0.529645E+02
  0.130469E+02  0.826968E+01  0.522951E+01  0.290153E+01  0.148317E+01  0.730347E+00
  0.358461E+00  0.182149E+00  0.100760E+00  0.639068E-01  0.474783E-01  0.401981E-01
  0.368702E-01  0.351691E-01  0.341601E-01  0.334515E-01  0.328902E-01  0.324502E-01
  0.320895E-01  0.320075E-01  0.320895E-01  0.324502E-01  0.328902E-01  0.334515E-01
  0.341601E-01  0.351691E-01  0.368702E-01  0.401981E-01  0.474783E-01  0.639068E-01
  0.100760E+00  0.182149E+00  0.358461E+00  0.730347E+00  0.148317E+01  0.290153E+01
  0.522951E+01  0.826968E+01  0.130469E+02  0.201191E+02  0.130469E+02  0.750812E+01
  0.522951E+01  0.314479E+01  0.170821E+01  0.876673E+00  0.440478E+00  0.224580E+00
  0.121646E+00  0.738436E-01  0.520900E-01  0.423270E-01  0.379015E-01  0.357317E-01
  0.345121E-01  0.337033E-01  0.330820E-01  0.325780E-01  0.322080E-01  0.319542E-01
  0.319542E-01  0.322080E-01  0.325780E-01  0.330820E-01  0.337033E-01  0.345121E-01
  0.357317E-01  0.379015E-01  0.423270E-01  0.520900E-01  0.738436E-01  0.121646E+00
  0.224580E+00  0.440478E+00  0.876673E+00  0.170821E+01  0.314479E+01  0.522951E+01
  0.750812E+01  0.920191E+01  0.920191E+01  0.750812E+01  0.439349E+01  0.290153E+01
  0.170821E+01  0.933260E+00  0.490335E+00  0.256636E+00  0.139658E+00  0.832238E-01
  0.567362E-01  0.445609E-01  0.389831E-01  0.363027E-01  0.348465E-01  0.339238E-01
  0.332383E-01  0.326772E-01  0.322345E-01  0.318807E-01  0.317961E-01  0.318807E-01
  0.322345E-01  0.326772E-01  0.332383E-01  0.339238E-01  0.348465E-01  0.363027E-01
  0.389831E-01  0.445609E-01  0.567362E-01  0.832238E-01  0.139658E+00  0.256636E+00
  0.490335E+00  0.933260E+00  0.170821E+01  0.290153E+01  0.439349E+01  0.571417E+01
  0.624997E+01  0.571417E+01  0.439349E+01  0.229585E+01  0.148317E+01  0.876673E+00
  0.490335E+00  0.268659E+00  0.150210E+00  0.900351E-01  0.605848E-01  0.465783E-01
  0.400078E-01  0.368445E-01  0.351545E-01  0.341152E-01  0.333640E-01  0.327510E-01
  0.322448E-01  0.317947E-01  0.316275E-01  0.316275E-01  0.317947E-01  0.322448E-01
  0.327510E-01  0.333640E-01  0.341152E-01  0.351545E-01  0.368445E-01  0.400078E-01
  0.465783E-01  0.605848E-01  0.900351E-01  0.150210E+00  0.268659E+00  0.490335E+00
  0.876673E+00  0.148317E+01  0.229585E+01  0.314472E+01  0.370792E+01  0.370792E+01
  0.314472E+01  0.229585E+01  0.113177E+01  0.730347E+00  0.440478E+00  0.256636E+00
  0.150210E+00  0.925365E-01  0.627822E-01  0.479998E-01  0.408227E-01  0.373003E-01
  0.354186E-01  0.342753E-01  0.334635E-01  0.328048E-01  0.322443E-01  0.318011E-01
  0.314603E-01  0.313731E-01  0.314603E-01  0.317058E-01  0.322443E-01  0.328048E-01
  0.334635E-01  0.342753E-01  0.354186E-01  0.373003E-01  0.408227E-01  0.479998E-01
  0.627822E-01  0.925365E-01  0.150210E+00  0.256636E+00  0.440478E+00  0.730347E+00
  0.113177E+01  0.159081E+01  0.197577E+01  0.212853E+01  0.197577E+01  0.159081E+01
  0.113177E+01  0.547323E+00  0.358461E+00  0.224580E+00  0.139658E+00  0.900351E-01
  0.627822E-01  0.485138E-01  0.412769E-01  0.376070E-01  0.356146E-01  0.343988E-01
  0.335389E-01  0.328431E-01  0.322383E-01  0.317345E-01  0.313063E-01  0.311335E-01
  0.311335E-01  0.313063E-01  0.316219E-01  0.322383E-01  0.328431E-01  0.335389E-01
  0.343988E-01  0.356146E-01  0.376070E-01  0.412769E-01  0.485138E-01  0.627822E-01
  0.900351E-01  0.139658E+00  0.224580E+00  0.358461E+00  0.547323E+00  0.775471E+00
  0.994223E+00  0.113169E+01  0.113169E+01  0.994223E+00  0.775471E+00  0.547323E+00
  0.268571E+00  0.182149E+00  0.121646E+00  0.832238E-01  0.605848E-01  0.479998E-01
  0.412769E-01  0.377159E-01  0.357199E-01  0.344773E-01  0.335905E-01  0.328684E-01
  0.322309E-01  0.316779E-01  0.311743E-01  0.309223E-01  0.308346E-01  0.309223E-01
  0.311743E-01  0.315495E-01  0.322309E-01  0.328684E-01  0.335905E-01  0.344773E-01
  0.357199E-01  0.377159E-01  0.412769E-01  0.479998E-01  0.605848E-01  0.832238E-01
  0.121646E+00  0.182149E+00  0.268571E+00  0.376940E+00  0.490189E+00  0.578845E+00
  0.612741E+00  0.578845E+00  0.490189E+00  0.376940E+00  0.268571E+00  0.139575E+00
  0.100760E+00  0.738436E-01  0.567362E-01  0.465783E-01  0.408227E-01  0.376070E-01
  0.357199E-01  0.345042E-01  0.336167E-01  0.328832E-01  0.322249E-01  0.316359E-01
  0.310708E-01  0.307505E-01  0.305792E-01  0.305792E-01  0.307505E-01  0.310708E-01
  0.314947E-01  0.322249E-01  0.328832E-01  0.336167E-01  0.345042E-01  0.357199E-01
  0.376070E-01  0.408227E-01  0.465783E-01  0.567362E-01  0.738436E-01  0.100760E+00
  0.139575E+00  0.189614E+00  0.245159E+00  0.294796E+00  0.324556E+00  0.324556E+00
  0.294796E+00  0.245159E+00  0.189614E+00  0.139575E+00  0.810888E-01  0.639068E-01
  0.520900E-01  0.445609E-01  0.400078E-01  0.373003E-01  0.356146E-01  0.344773E-01
  0.336167E-01  0.328880E-01  0.322213E-01  0.316101E-01  0.309999E-01  0.306237E-01
  0.303795E-01  0.302945E-01  0.303795E-01  0.306237E-01  0.309999E-01  0.314606E-01
  0.322213E-01  0.328880E-01  0.336167E-01  0.344773E-01  0.356146E-01  0.373003E-01
  0.400078E-01  0.445609E-01  0.520900E-01  0.639068E-01  0.810888E-01  0.103730E+00