### Running on host: assam

     Program POST-PROC v.6.4.1 starts on 14Sep2019 at 14:34:33 

     This program is part of the open-source Quantum ESPRESSO suite
     for quantum simulation of materials; please cite
         "P. Giannozzi et al., J. Phys.:Condens. Matter 21 395502 (2009);
         "P. Giannozzi et al., J. Phys.:Condens. Matter 29 465901 (2017);
          URL http://www.quantum-espresso.org", 
     in publications or presentations arising from this work. More details at
     http://www.quantum-espresso.org/quote

     Parallel version (MPI), running on     2 processors

     MPI processes distributed on     1 nodes
     R & G space division:  proc/nbgrp/npool/nimage =       2

     IMPORTANT: XC functional enforced from input :
     Exchange-correlation      = PBE ( 1  4  3  4 0 0)
     Any further DFT definition will be discarded
     Please, verify this is what you really want

               file Al.pbe-n-kjpaw_psl.1.0.0.UPF: wavefunction(s)  3S 3P renormalized

     Parallelization info
     --------------------
     sticks:   dense  smooth     PW     G-vecs:    dense   smooth      PW
     Min         477     117     42                 9943     1138     264
     Max         478     118     43                 9948     1139     267
     Sum         955     235     85                19891     2277     531


     Calling punch_plot, plot_num =  21
       Reconstructing all-electron valence charge.
     Writing data to file  al.pp
     Reading data from file  al.pp

     Writing data to be plotted to file all-electron-total-chdens.xsf
     Plot Type: 3D                     Output format: XCrySDen     

     POST-PROC    :      1.81s CPU      1.84s WALL


   This run was terminated on:  14:34:35  14Sep2019            

=------------------------------------------------------------------------------=
   JOB DONE.
=------------------------------------------------------------------------------=
