
     Program PROJWFC v.6.7GPU starts on  7May2021 at 10:19:29 

     This program is part of the open-source Quantum ESPRESSO suite
     for quantum simulation of materials; please cite
         "P. Giannozzi et al., J. Phys.:Condens. Matter 21 395502 (2009);
         "P. Giannozzi et al., J. Phys.:Condens. Matter 29 465901 (2017);
         "P. Giannozzi et al., J. Chem. Phys. 152 154105 (2020);
          URL http://www.quantum-espresso.org", 
     in publications or presentations arising from this work. More details at
     http://www.quantum-espresso.org/quote

     Parallel version (MPI & OpenMP), running on       2 processor cores
     Number of MPI processes:                 2
     Threads/MPI process:                     1

     MPI processes distributed on     1 nodes
     R & G space division:  proc/nbgrp/npool/nimage =       2

     Reading xml data from directory:

     /home/pietro/tmp/ni.save/

     IMPORTANT: XC functional enforced from input :
     Exchange-correlation= PBE
                           (   1   4   3   4   0   0   0)
     Any further DFT definition will be discarded
     Please, verify this is what you really want


     Parallelization info
     --------------------
     sticks:   dense  smooth     PW     G-vecs:    dense   smooth      PW
     Min         279     135     54                 4220     1487     350
     Max         280     136     55                 4221     1488     351
     Sum         559     271    109                 8441     2975     701

     Using Slab Decomposition


     Check: negative core charge=   -0.000008

     Optimized tetrahedron method (read from file) 
     [opt_tetra]  Optimized tetrahedron method is used.

     Calling projwave .... 

     Subspace diagonalization in iterative solution of the eigenvalue problem:
     a serial algorithm will be used


  Problem Sizes 
  natomwfc =           13
  nbnd     =           10
  nkstot   =         1540
  npwx     =          195
  nkb      =           18


     Atomic states used for projection
     (read from pseudopotential files):

     state #   1: atom   1 (Ni ), wfc  1 (l=0 m= 1)
     state #   2: atom   1 (Ni ), wfc  2 (l=1 m= 1)
     state #   3: atom   1 (Ni ), wfc  2 (l=1 m= 2)
     state #   4: atom   1 (Ni ), wfc  2 (l=1 m= 3)
     state #   5: atom   1 (Ni ), wfc  3 (l=2 m= 1)
     state #   6: atom   1 (Ni ), wfc  3 (l=2 m= 2)
     state #   7: atom   1 (Ni ), wfc  3 (l=2 m= 3)
     state #   8: atom   1 (Ni ), wfc  3 (l=2 m= 4)
     state #   9: atom   1 (Ni ), wfc  3 (l=2 m= 5)
     state #  10: atom   1 (Ni ), wfc  4 (l=0 m= 1)
     state #  11: atom   1 (Ni ), wfc  5 (l=1 m= 1)
     state #  12: atom   1 (Ni ), wfc  5 (l=1 m= 2)
     state #  13: atom   1 (Ni ), wfc  5 (l=1 m= 3)

 k =  -0.0250000000  0.0250000000  0.0250000000
==== e(   1) =   -85.89942 eV ==== 
     psi = 0.975*[#   1]+0.022*[#  10]+0.001*[#  11]+0.001*[#  12]+0.001*[#  13]
          
    |psi|^2 = 1.000
==== e(   2) =   -46.15742 eV ==== 
     psi = 0.220*[#   2]+0.220*[#   3]+0.220*[#   4]+0.003*[#  11]+0.003*[#  12]
          +0.003*[#  13]
    |psi|^2 = 0.668
==== e(   3) =   -46.15627 eV ==== 
     psi = 0.351*[#   2]+0.351*[#   3]+0.351*[#   4]+0.004*[#  11]+0.004*[#  12]
          +0.004*[#  13]
    |psi|^2 = 1.064
==== e(   4) =   -46.15627 eV ==== 
     psi = 0.308*[#   2]+0.308*[#   3]+0.308*[#   4]+0.003*[#  11]+0.003*[#  12]
          +0.003*[#  13]
    |psi|^2 = 0.936
==== e(   5) =     8.76305 eV ==== 
     psi = 0.964*[#  10]+0.024*[#   1]+0.004*[#  11]+0.004*[#  12]+0.004*[#  13]
          
    |psi|^2 = 1.000
==== e(   6) =    15.38399 eV ==== 
     psi = 0.332*[#   6]+0.332*[#   7]+0.332*[#   9]+0.001*[#  11]+0.001*[#  12]
          +0.001*[#  13]
    |psi|^2 = 1.001
==== e(   7) =    15.39615 eV ==== 
     psi = 0.332*[#   6]+0.332*[#   7]+0.332*[#   9]
    |psi|^2 = 0.997
==== e(   8) =    15.39615 eV ==== 
     psi = 0.332*[#   6]+0.332*[#   7]+0.332*[#   9]
    |psi|^2 = 0.997
==== e(   9) =    16.53284 eV ==== 
     psi = 0.500*[#   5]+0.500*[#   8]
    |psi|^2 = 1.000
==== e(  10) =    16.53284 eV ==== 
     psi = 0.500*[#   5]+0.500*[#   8]
    |psi|^2 = 1.000

 k =  -0.0750000000  0.0750000000 -0.0250000000
==== e(   1) =   -85.89834 eV ==== 
     psi = 0.967*[#   1]+0.017*[#  10]+0.006*[#  11]+0.006*[#  12]+0.006*[#  13]
          
    |psi|^2 = 1.000
==== e(   2) =   -46.16410 eV ==== 
     psi = 0.303*[#   2]+0.303*[#   3]+0.303*[#   4]+0.005*[#  11]+0.005*[#  12]
          +0.005*[#  13]+0.001*[#  10]
    |psi|^2 = 0.927
==== e(   3) =   -46.15818 eV ==== 
     psi = 0.053*[#   2]+0.053*[#   3]+0.053*[#   4]
    |psi|^2 = 0.162
==== e(   4) =   -46.15683 eV ==== 
     psi = 0.481*[#   2]+0.481*[#   3]+0.481*[#   4]+0.005*[#  11]+0.005*[#  12]
          +0.005*[#  13]
    |psi|^2 = 1.459
==== e(   5) =     8.89404 eV ==== 
     psi = 0.906*[#  10]+0.025*[#   1]+0.023*[#  11]+0.023*[#  12]+0.023*[#  13]
          
    |psi|^2 = 1.000
==== e(   6) =    15.34727 eV ==== 
     psi = 0.332*[#   6]+0.332*[#   7]+0.332*[#   9]+0.011*[#  11]+0.011*[#  12]
          +0.011*[#  13]
    |psi|^2 = 1.028
==== e(   7) =    15.42276 eV ==== 
     psi = 0.332*[#   6]+0.332*[#   7]+0.332*[#   9]
    |psi|^2 = 0.999
==== e(   8) =    15.43061 eV ==== 
     psi = 0.332*[#   6]+0.332*[#   7]+0.332*[#   9]
    |psi|^2 = 0.998
==== e(   9) =    16.50491 eV ==== 
     psi = 0.500*[#   5]+0.500*[#   8]
    |psi|^2 = 0.999
==== e(  10) =    16.53580 eV ==== 
     psi = 0.499*[#   5]+0.499*[#   8]
    |psi|^2 = 1.000

 k =  -0.1250000000  0.1250000000 -0.0750000000
==== e(   1) =   -85.89575 eV ==== 
     psi = 0.953*[#   1]+0.013*[#  11]+0.013*[#  12]+0.013*[#  13]+0.008*[#  10]
          
    |psi|^2 = 1.000
==== e(   2) =   -46.18098 eV ==== 
     psi = 0.266*[#   2]+0.266*[#   3]+0.266*[#   4]+0.007*[#  11]+0.007*[#  12]
          +0.007*[#  13]+0.003*[#  10]
    |psi|^2 = 0.821
==== e(   3) =   -46.16117 eV ==== 
     psi = 0.129*[#   2]+0.129*[#   3]+0.129*[#   4]
    |psi|^2 = 0.391
==== e(   4) =   -46.15887 eV ==== 
     psi = 0.463*[#   2]+0.463*[#   3]+0.463*[#   4]+0.004*[#  11]+0.004*[#  12]
          +0.004*[#  13]
    |psi|^2 = 1.401
==== e(   5) =     9.21702 eV ==== 
     psi = 0.794*[#  10]+0.059*[#  11]+0.059*[#  12]+0.059*[#  13]+0.028*[#   1]
          
    |psi|^2 = 1.000
==== e(   6) =    15.26930 eV ==== 
     psi = 0.330*[#   6]+0.330*[#   7]+0.330*[#   9]+0.026*[#  11]+0.026*[#  12]
          +0.026*[#  13]
    |psi|^2 = 1.068
==== e(   7) =    15.48688 eV ==== 
     psi = 0.330*[#   6]+0.330*[#   7]+0.330*[#   9]+0.003*[#   5]+0.003*[#   8]
          +0.001*[#  11]+0.001*[#  12]+0.001*[#  13]
    |psi|^2 = 1.001
==== e(   8) =    15.49605 eV ==== 
     psi = 0.327*[#   6]+0.327*[#   7]+0.327*[#   9]+0.006*[#   5]+0.006*[#   8]
          +0.001*[#  11]+0.001*[#  12]+0.001*[#  13]
    |psi|^2 = 0.999
==== e(   9) =    16.46651 eV ==== 
     psi = 0.496*[#   5]+0.496*[#   8]+0.002*[#   6]+0.002*[#   7]+0.002*[#   9]
          
    |psi|^2 = 0.999
==== e(  10) =    16.52920 eV ==== 
     psi = 0.493*[#   5]+0.493*[#   8]+0.004*[#   6]+0.004*[#   7]+0.004*[#   9]
          
    |psi|^2 = 0.999

 k =  -0.1750000000  0.1750000000 -0.1250000000
==== e(   1) =   -85.89189 eV ==== 
     psi = 0.944*[#   1]+0.018*[#  11]+0.018*[#  12]+0.018*[#  13]+0.002*[#  10]
          
    |psi|^2 = 1.000
==== e(   2) =   -46.20612 eV ==== 
     psi = 0.251*[#   2]+0.251*[#   3]+0.251*[#   4]+0.007*[#  11]+0.007*[#  12]
          +0.007*[#  13]+0.004*[#  10]
    |psi|^2 = 0.778
==== e(   3) =   -46.16520 eV ==== 
     psi = 0.162*[#   2]+0.162*[#   3]+0.162*[#   4]
    |psi|^2 = 0.487
==== e(   4) =   -46.16219 eV ==== 
     psi = 0.455*[#   2]+0.455*[#   3]+0.455*[#   4]+0.004*[#  11]+0.004*[#  12]
          +0.004*[#  13]
    |psi|^2 = 1.376
==== e(   5) =     9.71896 eV ==== 
     psi = 0.675*[#  10]+0.096*[#  11]+0.096*[#  12]+0.096*[#  13]+0.029*[#   1]
          +0.002*[#   6]+0.002*[#   7]+0.002*[#   9]
    |psi|^2 = 1.000
==== e(   6) =    15.16889 eV ==== 
     psi = 0.326*[#   6]+0.326*[#   7]+0.326*[#   9]+0.042*[#  11]+0.042*[#  12]
          +0.042*[#  13]
    |psi|^2 = 1.104
==== e(   7) =    15.56523 eV ==== 
     psi = 0.318*[#   6]+0.318*[#   7]+0.318*[#   9]+0.021*[#   5]+0.021*[#   8]
          +0.003*[#  11]+0.003*[#  12]+0.003*[#  13]
    |psi|^2 = 1.006
==== e(   8) =    15.56827 eV ==== 
     psi = 0.312*[#   6]+0.312*[#   7]+0.312*[#   9]+0.029*[#   5]+0.029*[#   8]
          +0.003*[#  11]+0.003*[#  12]+0.003*[#  13]
    |psi|^2 = 1.002
==== e(   9) =    16.44117 eV ==== 
     psi = 0.478*[#   5]+0.478*[#   8]+0.014*[#   6]+0.014*[#   7]+0.014*[#   9]
          
    |psi|^2 = 0.999
==== e(  10) =    16.53627 eV ==== 
     psi = 0.471*[#   5]+0.471*[#   8]+0.019*[#   6]+0.019*[#   7]+0.019*[#   9]
          
    |psi|^2 = 0.999

 k =  -0.2250000000  0.2250000000 -0.1750000000
==== e(   1) =   -85.88715 eV ==== 
     psi = 0.942*[#   1]+0.019*[#  11]+0.019*[#  12]+0.019*[#  13]
    |psi|^2 = 1.000
==== e(   2) =   -46.23697 eV ==== 
     psi = 0.242*[#   2]+0.242*[#   3]+0.242*[#   4]+0.008*[#  11]+0.008*[#  12]
          +0.008*[#  13]+0.004*[#  10]
    |psi|^2 = 0.753
==== e(   3) =   -46.16994 eV ==== 
     psi = 0.179*[#   2]+0.179*[#   3]+0.179*[#   4]
    |psi|^2 = 0.540
==== e(   4) =   -46.16648 eV ==== 
     psi = 0.451*[#   2]+0.451*[#   3]+0.451*[#   4]+0.003*[#  11]+0.003*[#  12]
          +0.003*[#  13]
    |psi|^2 = 1.363
==== e(   5) =    10.37348 eV ==== 
     psi = 0.574*[#  10]+0.124*[#  11]+0.124*[#  12]+0.124*[#  13]+0.028*[#   1]
          +0.008*[#   6]+0.008*[#   7]+0.008*[#   9]
    |psi|^2 = 1.000
==== e(   6) =    15.07976 eV ==== 
     psi = 0.317*[#   6]+0.317*[#   7]+0.317*[#   9]+0.057*[#  11]+0.057*[#  12]
          +0.057*[#  13]+0.001*[#   1]
    |psi|^2 = 1.123
==== e(   7) =    15.61190 eV ==== 
     psi = 0.278*[#   6]+0.278*[#   7]+0.278*[#   9]+0.080*[#   5]+0.080*[#   8]
          +0.007*[#  11]+0.007*[#  12]+0.007*[#  13]
    |psi|^2 = 1.016
==== e(   8) =    15.61820 eV ==== 
     psi = 0.284*[#   6]+0.284*[#   7]+0.284*[#   9]+0.073*[#   5]+0.073*[#   8]
          +0.005*[#  11]+0.005*[#  12]+0.005*[#  13]
    |psi|^2 = 1.011
==== e(   9) =    16.46683 eV ==== 
     psi = 0.427*[#   5]+0.427*[#   8]+0.048*[#   6]+0.048*[#   7]+0.048*[#   9]
          
    |psi|^2 = 0.999
==== e(  10) =    16.58911 eV ==== 
     psi = 0.419*[#   5]+0.419*[#   8]+0.053*[#   6]+0.053*[#   7]+0.053*[#   9]
          
    |psi|^2 = 0.999

 k =  -0.2750000000  0.2750000000 -0.2250000000
==== e(   1) =   -85.88198 eV ==== 
     psi = 0.948*[#   1]+0.017*[#  11]+0.017*[#  12]+0.017*[#  13]
    |psi|^2 = 1.000
==== e(   2) =   -46.27047 eV ==== 
     psi = 0.236*[#   2]+0.236*[#   3]+0.236*[#   4]+0.007*[#  11]+0.007*[#  12]
          +0.007*[#  13]+0.003*[#  10]
    |psi|^2 = 0.733
==== e(   3) =   -46.17492 eV ==== 
     psi = 0.191*[#   2]+0.191*[#   3]+0.191*[#   4]
    |psi|^2 = 0.575
==== e(   4) =   -46.17130 eV ==== 
     psi = 0.448*[#   2]+0.448*[#   3]+0.448*[#   4]+0.003*[#  11]+0.003*[#  12]
          +0.003*[#  13]
    |psi|^2 = 1.355
==== e(   5) =    11.12848 eV ==== 
     psi = 0.493*[#  10]+0.136*[#  11]+0.136*[#  12]+0.136*[#  13]+0.024*[#   6]
          +0.024*[#   7]+0.024*[#   9]+0.023*[#   1]+0.001*[#   2]+0.001*[#   3]
          +0.001*[#   4]
    |psi|^2 = 0.999
==== e(   6) =    15.05731 eV ==== 
     psi = 0.296*[#   6]+0.296*[#   7]+0.296*[#   9]+0.073*[#  11]+0.073*[#  12]
          +0.073*[#  13]+0.003*[#   1]+0.002*[#  10]
    |psi|^2 = 1.115
==== e(   7) =    15.60445 eV ==== 
     psi = 0.232*[#   6]+0.232*[#   7]+0.232*[#   9]+0.149*[#   5]+0.149*[#   8]
          +0.014*[#  11]+0.014*[#  12]+0.014*[#  13]
    |psi|^2 = 1.036
==== e(   8) =    15.61499 eV ==== 
     psi = 0.233*[#   6]+0.233*[#   7]+0.233*[#   9]+0.149*[#   5]+0.149*[#   8]
          +0.011*[#  11]+0.011*[#  12]+0.011*[#  13]
    |psi|^2 = 1.030
==== e(   9) =    16.56959 eV ==== 
     psi = 0.350*[#   5]+0.350*[#   8]+0.099*[#   6]+0.099*[#   7]+0.099*[#   9]
          
    |psi|^2 = 0.999
==== e(  10) =    16.70475 eV ==== 
     psi = 0.350*[#   5]+0.350*[#   8]+0.099*[#   6]+0.099*[#   7]+0.099*[#   9]
          
    |psi|^2 = 0.999

 k =  -0.3250000000  0.3250000000 -0.2750000000
==== e(   1) =   -85.87690 eV ==== 
     psi = 0.960*[#   1]+0.013*[#  11]+0.013*[#  12]+0.013*[#  13]
    |psi|^2 = 1.000
==== e(   2) =   -46.30333 eV ==== 
     psi = 0.232*[#   2]+0.232*[#   3]+0.232*[#   4]+0.006*[#  11]+0.006*[#  12]
          +0.006*[#  13]+0.002*[#  10]
    |psi|^2 = 0.715
==== e(   3) =   -46.17965 eV ==== 
     psi = 0.199*[#   2]+0.199*[#   3]+0.199*[#   4]+0.001*[#  11]+0.001*[#  12]
          +0.001*[#  13]
    |psi|^2 = 0.601
==== e(   4) =   -46.17619 eV ==== 
     psi = 0.446*[#   2]+0.446*[#   3]+0.446*[#   4]+0.003*[#  11]+0.003*[#  12]
          +0.003*[#  13]
    |psi|^2 = 1.349
==== e(   5) =    11.88163 eV ==== 
     psi = 0.425*[#  10]+0.122*[#  11]+0.122*[#  12]+0.122*[#  13]+0.063*[#   6]
          +0.063*[#   7]+0.063*[#   9]+0.015*[#   1]+0.001*[#   2]+0.001*[#   3]
          +0.001*[#   4]
    |psi|^2 = 0.999
==== e(   6) =    15.19651 eV ==== 
     psi = 0.249*[#   6]+0.249*[#   7]+0.249*[#   9]+0.096*[#  11]+0.096*[#  12]
          +0.096*[#  13]+0.012*[#  10]+0.006*[#   1]
    |psi|^2 = 1.057
==== e(   7) =    15.55559 eV ==== 
     psi = 0.208*[#   5]+0.208*[#   8]+0.192*[#   6]+0.192*[#   7]+0.192*[#   9]
          +0.028*[#  11]+0.028*[#  12]+0.028*[#  13]
    |psi|^2 = 1.078
==== e(   8) =    15.56567 eV ==== 
     psi = 0.213*[#   5]+0.213*[#   8]+0.190*[#   6]+0.190*[#   7]+0.190*[#   9]
          +0.025*[#  11]+0.025*[#  12]+0.025*[#  13]
    |psi|^2 = 1.072
==== e(   9) =    16.73118 eV ==== 
     psi = 0.285*[#   5]+0.285*[#   8]+0.142*[#   6]+0.142*[#   7]+0.142*[#   9]
          
    |psi|^2 = 0.999
==== e(  10) =    16.86655 eV ==== 
     psi = 0.290*[#   5]+0.290*[#   8]+0.137*[#   6]+0.137*[#   7]+0.137*[#   9]
          +0.002*[#  11]+0.002*[#  12]+0.002*[#  13]+0.001*[#  10]
    |psi|^2 = 0.999

 k =  -0.3750000000  0.3750000000 -0.3250000000
==== e(   1) =   -85.87240 eV ==== 
     psi = 0.974*[#   1]+0.008*[#  11]+0.008*[#  12]+0.008*[#  13]
    |psi|^2 = 1.000
==== e(   2) =   -46.33234 eV ==== 
     psi = 0.228*[#   2]+0.228*[#   3]+0.228*[#   4]+0.005*[#  11]+0.005*[#  12]
          +0.005*[#  13]+0.001*[#  10]
    |psi|^2 = 0.699
==== e(   3) =   -46.18369 eV ==== 
     psi = 0.206*[#   2]+0.206*[#   3]+0.206*[#   4]+0.001*[#  11]+0.001*[#  12]
          +0.001*[#  13]
    |psi|^2 = 0.621
==== e(   4) =   -46.18067 eV ==== 
     psi = 0.444*[#   2]+0.444*[#   3]+0.444*[#   4]+0.004*[#  11]+0.004*[#  12]
          +0.004*[#  13]
    |psi|^2 = 1.344
==== e(   5) =    12.47371 eV ==== 
     psi = 0.354*[#  10]+0.133*[#   6]+0.133*[#   7]+0.133*[#   9]+0.078*[#  11]
          +0.078*[#  12]+0.078*[#  13]+0.007*[#   1]
    |psi|^2 = 0.998
==== e(   6) =    15.48993 eV ==== 
     psi = 0.244*[#   5]+0.244*[#   8]+0.169*[#   6]+0.169*[#   7]+0.169*[#   9]
          +0.031*[#  11]+0.031*[#  12]+0.031*[#  13]
    |psi|^2 = 1.088
==== e(   7) =    15.50039 eV ==== 
     psi = 0.253*[#   5]+0.253*[#   8]+0.163*[#   6]+0.163*[#   7]+0.163*[#   9]
          
    |psi|^2 = 0.998
==== e(   8) =    15.62308 eV ==== 
     psi = 0.166*[#   6]+0.166*[#   7]+0.166*[#   9]+0.098*[#  11]+0.098*[#  12]
          +0.098*[#  13]+0.033*[#  10]+0.008*[#   5]+0.008*[#   8]+0.007*[#   1]
          +0.001*[#   2]+0.001*[#   3]+0.001*[#   4]
    |psi|^2 = 0.853
==== e(   9) =    16.90942 eV ==== 
     psi = 0.245*[#   5]+0.245*[#   8]+0.169*[#   6]+0.169*[#   7]+0.169*[#   9]
          
    |psi|^2 = 1.000
==== e(  10) =    17.04435 eV ==== 
     psi = 0.247*[#   5]+0.247*[#   8]+0.162*[#   6]+0.162*[#   7]+0.162*[#   9]
          +0.005*[#  11]+0.005*[#  12]+0.005*[#  13]+0.003*[#  10]
    |psi|^2 = 1.000

 k =  -0.4250000000  0.4250000000 -0.3750000000
==== e(   1) =   -85.86891 eV ==== 
     psi = 0.987*[#   1]+0.004*[#  11]+0.004*[#  12]+0.004*[#  13]
    |psi|^2 = 1.000
==== e(   2) =   -46.35472 eV ==== 
     psi = 0.225*[#   2]+0.225*[#   3]+0.225*[#   4]+0.004*[#  11]+0.004*[#  12]
          +0.004*[#  13]
    |psi|^2 = 0.685
==== e(   3) =   -46.18664 eV ==== 
     psi = 0.211*[#   2]+0.211*[#   3]+0.211*[#   4]+0.002*[#  11]+0.002*[#  12]
          +0.002*[#  13]
    |psi|^2 = 0.639
==== e(   4) =   -46.18431 eV ==== 
     psi = 0.443*[#   2]+0.443*[#   3]+0.443*[#   4]+0.004*[#  11]+0.004*[#  12]
          +0.004*[#  13]
    |psi|^2 = 1.340
==== e(   5) =    12.80635 eV ==== 
     psi = 0.292*[#  10]+0.202*[#   6]+0.202*[#   7]+0.202*[#   9]+0.032*[#  11]
          +0.032*[#  12]+0.032*[#  13]+0.002*[#   1]
    |psi|^2 = 0.997
==== e(   6) =    15.43060 eV ==== 
     psi = 0.271*[#   5]+0.271*[#   8]+0.151*[#   6]+0.151*[#   7]+0.151*[#   9]
          +0.014*[#  11]+0.014*[#  12]+0.014*[#  13]
    |psi|^2 = 1.037
==== e(   7) =    15.44275 eV ==== 
     psi = 0.275*[#   5]+0.275*[#   8]+0.149*[#   6]+0.149*[#   7]+0.149*[#   9]
          
    |psi|^2 = 0.997
==== e(   8) =    16.32448 eV ==== 
     psi = 0.138*[#  11]+0.138*[#  12]+0.138*[#  13]+0.096*[#   6]+0.096*[#   7]
          +0.096*[#   9]+0.040*[#  10]+0.022*[#   5]+0.022*[#   8]+0.005*[#   1]
          +0.002*[#   2]+0.002*[#   3]+0.002*[#   4]
    |psi|^2 = 0.795
==== e(   9) =    17.06661 eV ==== 
     psi = 0.223*[#   5]+0.223*[#   8]+0.184*[#   6]+0.184*[#   7]+0.184*[#   9]
          
    |psi|^2 = 1.000
==== e(  10) =    17.23484 eV ==== 
     psi = 0.206*[#   5]+0.206*[#   8]+0.165*[#   6]+0.165*[#   7]+0.165*[#   9]
          +0.027*[#  11]+0.027*[#  12]+0.027*[#  13]+0.009*[#  10]
    |psi|^2 = 1.000

 k =  -0.4750000000  0.4750000000 -0.4250000000
==== e(   1) =   -85.86680 eV ==== 
     psi = 0.996*[#   1]
    |psi|^2 = 1.000
==== e(   2) =   -46.36830 eV ==== 
     psi = 0.222*[#   2]+0.222*[#   3]+0.222*[#   4]+0.003*[#  11]+0.003*[#  12]
          +0.003*[#  13]
    |psi|^2 = 0.674
==== e(   3) =   -46.18821 eV ==== 
     psi = 0.216*[#   2]+0.216*[#   3]+0.216*[#   4]+0.002*[#  11]+0.002*[#  12]
          +0.002*[#  13]
    |psi|^2 = 0.655
==== e(   4) =   -46.18674 eV ==== 
     psi = 0.442*[#   2]+0.442*[#   3]+0.442*[#   4]+0.004*[#  11]+0.004*[#  12]
          +0.004*[#  13]
    |psi|^2 = 1.336
==== e(   5) =    12.94174 eV ==== 
     psi = 0.257*[#  10]+0.239*[#   6]+0.239*[#   7]+0.239*[#   9]+0.007*[#  11]
          +0.007*[#  12]+0.007*[#  13]
    |psi|^2 = 0.996
==== e(   6) =    15.39081 eV ==== 
     psi = 0.284*[#   5]+0.284*[#   8]+0.142*[#   6]+0.142*[#   7]+0.142*[#   9]
          +0.004*[#  11]+0.004*[#  12]+0.004*[#  13]
    |psi|^2 = 1.006
==== e(   7) =    15.40661 eV ==== 
     psi = 0.285*[#   5]+0.285*[#   8]+0.142*[#   6]+0.142*[#   7]+0.142*[#   9]
          
    |psi|^2 = 0.996
==== e(   8) =    16.88821 eV ==== 
     psi = 0.114*[#   6]+0.114*[#   7]+0.114*[#   9]+0.105*[#   5]+0.105*[#   8]
          +0.096*[#  11]+0.096*[#  12]+0.096*[#  13]+0.009*[#  10]+0.001*[#   2]
          +0.001*[#   3]+0.001*[#   4]
    |psi|^2 = 0.854
==== e(   9) =    17.17506 eV ==== 
     psi = 0.213*[#   5]+0.213*[#   8]+0.191*[#   6]+0.191*[#   7]+0.191*[#   9]
          
    |psi|^2 = 1.000
==== e(  10) =    17.54770 eV ==== 
     psi = 0.158*[#  11]+0.158*[#  12]+0.158*[#  13]+0.109*[#   5]+0.109*[#   8]
          +0.096*[#   6]+0.096*[#   7]+0.096*[#   9]+0.014*[#  10]+0.002*[#   2]
          +0.002*[#   3]+0.002*[#   4]
    |psi|^2 = 1.000

 k =   0.4750000000 -0.4750000000  0.5250000000
==== e(   1) =   -85.86625 eV ==== 
     psi = 0.998*[#   1]
    |psi|^2 = 1.000
==== e(   2) =   -46.37179 eV ==== 
     psi = 0.219*[#   2]+0.219*[#   3]+0.219*[#   4]+0.003*[#  11]+0.003*[#  12]
          +0.003*[#  13]
    |psi|^2 = 0.665
==== e(   3) =   -46.18824 eV ==== 
     psi = 0.221*[#   2]+0.221*[#   3]+0.221*[#   4]+0.002*[#  11]+0.002*[#  12]
          +0.002*[#  13]
    |psi|^2 = 0.670
==== e(   4) =   -46.18773 eV ==== 
     psi = 0.440*[#   2]+0.440*[#   3]+0.440*[#   4]+0.004*[#  11]+0.004*[#  12]
          +0.004*[#  13]
    |psi|^2 = 1.332
==== e(   5) =    12.96885 eV ==== 
     psi = 0.249*[#  10]+0.248*[#   6]+0.248*[#   7]+0.248*[#   9]+0.001*[#  11]
          +0.001*[#  12]+0.001*[#  13]
    |psi|^2 = 0.996
==== e(   6) =    15.37881 eV ==== 
     psi = 0.289*[#   5]+0.289*[#   8]+0.139*[#   6]+0.139*[#   7]+0.139*[#   9]
          
    |psi|^2 = 0.996
==== e(   7) =    15.39868 eV ==== 
     psi = 0.286*[#   5]+0.286*[#   8]+0.141*[#   6]+0.141*[#   7]+0.141*[#   9]
          
    |psi|^2 = 0.997
==== e(   8) =    16.98690 eV ==== 
     psi = 0.141*[#   6]+0.141*[#   7]+0.141*[#   9]+0.141*[#   5]+0.141*[#   8]
          +0.065*[#  11]+0.065*[#  12]+0.065*[#  13]
    |psi|^2 = 0.904
==== e(   9) =    17.21751 eV ==== 
     psi = 0.213*[#   5]+0.213*[#   8]+0.192*[#   6]+0.192*[#   7]+0.192*[#   9]
          
    |psi|^2 = 1.000
==== e(  10) =    17.73587 eV ==== 
     psi = 0.231*[#  11]+0.231*[#  12]+0.231*[#  13]+0.069*[#   5]+0.069*[#   8]
          +0.053*[#   6]+0.053*[#   7]+0.053*[#   9]+0.003*[#   2]+0.003*[#   3]
          +0.003*[#   4]
    |psi|^2 = 1.000

 k =   0.4250000000 -0.4250000000  0.4750000000
==== e(   1) =   -85.86734 eV ==== 
     psi = 0.994*[#   1]+0.002*[#  11]+0.002*[#  12]+0.002*[#  13]
    |psi|^2 = 1.000
==== e(   2) =   -46.36486 eV ==== 
     psi = 0.217*[#   2]+0.217*[#   3]+0.217*[#   4]+0.003*[#  11]+0.003*[#  12]
          +0.003*[#  13]
    |psi|^2 = 0.658
==== e(   3) =   -46.18719 eV ==== 
     psi = 0.444*[#   2]+0.444*[#   3]+0.444*[#   4]+0.004*[#  11]+0.004*[#  12]
          +0.004*[#  13]
    |psi|^2 = 1.343
==== e(   4) =   -46.18675 eV ==== 
     psi = 0.222*[#   2]+0.222*[#   3]+0.222*[#   4]+0.002*[#  11]+0.002*[#  12]
          +0.002*[#  13]
    |psi|^2 = 0.671
==== e(   5) =    12.91187 eV ==== 
     psi = 0.265*[#  10]+0.230*[#   6]+0.230*[#   7]+0.230*[#   9]+0.013*[#  11]
          +0.013*[#  12]+0.013*[#  13]
    |psi|^2 = 0.996
==== e(   6) =    15.39696 eV ==== 
     psi = 0.285*[#   5]+0.285*[#   8]+0.142*[#   6]+0.142*[#   7]+0.142*[#   9]
          +0.003*[#  11]+0.003*[#  12]+0.003*[#  13]
    |psi|^2 = 1.004
==== e(   7) =    15.41998 eV ==== 
     psi = 0.279*[#   5]+0.279*[#   8]+0.146*[#   6]+0.146*[#   7]+0.146*[#   9]
          
    |psi|^2 = 0.997
==== e(   8) =    16.74043 eV ==== 
     psi = 0.116*[#  11]+0.116*[#  12]+0.116*[#  13]+0.102*[#   6]+0.102*[#   7]
          +0.102*[#   9]+0.074*[#   5]+0.074*[#   8]+0.019*[#  10]+0.002*[#   1]
          +0.001*[#   2]+0.001*[#   3]+0.001*[#   4]
    |psi|^2 = 0.827
==== e(   9) =    17.18799 eV ==== 
     psi = 0.220*[#   5]+0.220*[#   8]+0.187*[#   6]+0.187*[#   7]+0.187*[#   9]
          
    |psi|^2 = 1.000
==== e(  10) =    17.39446 eV ==== 
     psi = 0.139*[#   5]+0.139*[#   8]+0.126*[#   6]+0.126*[#   7]+0.126*[#   9]
          +0.108*[#  11]+0.108*[#  12]+0.108*[#  13]+0.016*[#  10]+0.001*[#   2]
          +0.001*[#   3]+0.001*[#   4]+0.001*[#   1]
    |psi|^2 = 1.000

 k =   0.3750000000 -0.3750000000  0.4250000000
==== e(   1) =   -85.86994 eV ==== 
     psi = 0.983*[#   1]+0.005*[#  11]+0.005*[#  12]+0.005*[#  13]
    |psi|^2 = 1.000
==== e(   2) =   -46.34816 eV ==== 
     psi = 0.214*[#   2]+0.214*[#   3]+0.214*[#   4]+0.003*[#  11]+0.003*[#  12]
          +0.003*[#  13]
    |psi|^2 = 0.653
==== e(   3) =   -46.18516 eV ==== 
     psi = 0.447*[#   2]+0.447*[#   3]+0.447*[#   4]+0.004*[#  11]+0.004*[#  12]
          +0.004*[#  13]
    |psi|^2 = 1.351
==== e(   4) =   -46.18386 eV ==== 
     psi = 0.223*[#   2]+0.223*[#   3]+0.223*[#   4]+0.002*[#  11]+0.002*[#  12]
          +0.002*[#  13]
    |psi|^2 = 0.675
==== e(   5) =    12.72260 eV ==== 
     psi = 0.310*[#  10]+0.182*[#   6]+0.182*[#   7]+0.182*[#   9]+0.045*[#  11]
          +0.045*[#  12]+0.045*[#  13]+0.003*[#   1]
    |psi|^2 = 0.997
==== e(   6) =    15.44256 eV ==== 
     psi = 0.272*[#   5]+0.272*[#   8]+0.150*[#   6]+0.150*[#   7]+0.150*[#   9]
          +0.012*[#  11]+0.012*[#  12]+0.012*[#  13]
    |psi|^2 = 1.031
==== e(   7) =    15.46630 eV ==== 
     psi = 0.262*[#   5]+0.262*[#   8]+0.157*[#   6]+0.157*[#   7]+0.157*[#   9]
          
    |psi|^2 = 0.997
==== e(   8) =    16.07032 eV ==== 
     psi = 0.126*[#  11]+0.126*[#  12]+0.126*[#  13]+0.117*[#   6]+0.117*[#   7]
          +0.117*[#   9]+0.042*[#  10]+0.013*[#   5]+0.013*[#   8]+0.006*[#   1]
          +0.001*[#   2]+0.001*[#   3]+0.001*[#   4]
    |psi|^2 = 0.806
==== e(   9) =    17.09322 eV ==== 
     psi = 0.237*[#   5]+0.237*[#   8]+0.175*[#   6]+0.175*[#   7]+0.175*[#   9]
          
    |psi|^2 = 1.000
==== e(  10) =    17.09744 eV ==== 
     psi = 0.213*[#   5]+0.213*[#   8]+0.172*[#   6]+0.172*[#   7]+0.172*[#   9]
          +0.017*[#  11]+0.017*[#  12]+0.017*[#  13]+0.007*[#  10]
    |psi|^2 = 1.000

 k =   0.3250000000 -0.3250000000  0.3750000000
==== e(   1) =   -85.87380 eV ==== 
     psi = 0.969*[#   1]+0.010*[#  11]+0.010*[#  12]+0.010*[#  13]
    |psi|^2 = 1.000
==== e(   2) =   -46.32329 eV ==== 
     psi = 0.212*[#   2]+0.212*[#   3]+0.212*[#   4]+0.004*[#  11]+0.004*[#  12]
          +0.004*[#  13]+0.001*[#  10]
    |psi|^2 = 0.649
==== e(   3) =   -46.18184 eV ==== 
     psi = 0.450*[#   2]+0.450*[#   3]+0.450*[#   4]+0.003*[#  11]+0.003*[#  12]
          +0.003*[#  13]
    |psi|^2 = 1.359
==== e(   4) =   -46.17986 eV ==== 
     psi = 0.225*[#   2]+0.225*[#   3]+0.225*[#   4]+0.002*[#  11]+0.002*[#  12]
          +0.002*[#  13]
    |psi|^2 = 0.680
==== e(   5) =    12.30370 eV ==== 
     psi = 0.378*[#  10]+0.107*[#   6]+0.107*[#   7]+0.107*[#   9]+0.095*[#  11]
          +0.095*[#  12]+0.095*[#  13]+0.009*[#   1]+0.001*[#   2]+0.001*[#   3]
          +0.001*[#   4]
    |psi|^2 = 0.998
==== e(   6) =    15.44132 eV ==== 
     psi = 0.200*[#   6]+0.200*[#   7]+0.200*[#   9]+0.107*[#  11]+0.107*[#  12]
          +0.107*[#  13]+0.025*[#  10]+0.007*[#   1]+0.001*[#   5]+0.001*[#   8]
          +0.001*[#   2]+0.001*[#   3]+0.001*[#   4]
    |psi|^2 = 0.958
==== e(   7) =    15.50688 eV ==== 
     psi = 0.247*[#   5]+0.247*[#   8]+0.166*[#   6]+0.166*[#   7]+0.166*[#   9]
          +0.040*[#  11]+0.040*[#  12]+0.040*[#  13]
    |psi|^2 = 1.115
==== e(   8) =    15.52768 eV ==== 
     psi = 0.233*[#   5]+0.233*[#   8]+0.177*[#   6]+0.177*[#   7]+0.177*[#   9]
          +0.041*[#  11]+0.041*[#  12]+0.041*[#  13]
    |psi|^2 = 1.119
==== e(   9) =    16.88634 eV ==== 
     psi = 0.249*[#   5]+0.249*[#   8]+0.162*[#   6]+0.162*[#   7]+0.162*[#   9]
          +0.004*[#  11]+0.004*[#  12]+0.004*[#  13]+0.002*[#  10]
    |psi|^2 = 0.999
==== e(  10) =    16.95152 eV ==== 
     psi = 0.266*[#   5]+0.266*[#   8]+0.155*[#   6]+0.155*[#   7]+0.155*[#   9]
          
    |psi|^2 = 1.000

 k =   0.2750000000 -0.2750000000  0.3250000000
==== e(   1) =   -85.87855 eV ==== 
     psi = 0.956*[#   1]+0.015*[#  11]+0.015*[#  12]+0.015*[#  13]
    |psi|^2 = 1.000
==== e(   2) =   -46.29266 eV ==== 
     psi = 0.209*[#   2]+0.209*[#   3]+0.209*[#   4]+0.005*[#  11]+0.005*[#  12]
          +0.005*[#  13]+0.002*[#  10]
    |psi|^2 = 0.643
==== e(   3) =   -46.17757 eV ==== 
     psi = 0.453*[#   2]+0.453*[#   3]+0.453*[#   4]+0.003*[#  11]+0.003*[#  12]
          +0.003*[#  13]
    |psi|^2 = 1.369
==== e(   4) =   -46.17515 eV ==== 
     psi = 0.227*[#   2]+0.227*[#   3]+0.227*[#   4]+0.001*[#  11]+0.001*[#  12]
          +0.001*[#  13]
    |psi|^2 = 0.685
==== e(   5) =    11.63985 eV ==== 
     psi = 0.447*[#  10]+0.130*[#  11]+0.130*[#  12]+0.130*[#  13]+0.046*[#   6]
          +0.046*[#   7]+0.046*[#   9]+0.018*[#   1]+0.001*[#   2]+0.001*[#   3]
          +0.001*[#   4]
    |psi|^2 = 0.999
==== e(   6) =    15.12299 eV ==== 
     psi = 0.269*[#   6]+0.269*[#   7]+0.269*[#   9]+0.077*[#  11]+0.077*[#  12]
          +0.077*[#  13]+0.007*[#  10]+0.005*[#   1]
    |psi|^2 = 1.053
==== e(   7) =    15.57311 eV ==== 
     psi = 0.200*[#   5]+0.200*[#   8]+0.199*[#   6]+0.199*[#   7]+0.199*[#   9]
          +0.018*[#  11]+0.018*[#  12]+0.018*[#  13]
    |psi|^2 = 1.051
==== e(   8) =    15.58720 eV ==== 
     psi = 0.208*[#   6]+0.208*[#   7]+0.208*[#   9]+0.186*[#   5]+0.186*[#   8]
          +0.021*[#  11]+0.021*[#  12]+0.021*[#  13]
    |psi|^2 = 1.059
==== e(   9) =    16.69250 eV ==== 
     psi = 0.298*[#   5]+0.298*[#   8]+0.132*[#   6]+0.132*[#   7]+0.132*[#   9]
          +0.002*[#  11]+0.002*[#  12]+0.002*[#  13]+0.001*[#  10]
    |psi|^2 = 0.999
==== e(  10) =    16.79174 eV ==== 
     psi = 0.314*[#   5]+0.314*[#   8]+0.124*[#   6]+0.124*[#   7]+0.124*[#   9]
          
    |psi|^2 = 0.999

 k =   0.2250000000 -0.2250000000  0.2750000000
==== e(   1) =   -85.88372 eV ==== 
     psi = 0.945*[#   1]+0.018*[#  11]+0.018*[#  12]+0.018*[#  13]
    |psi|^2 = 1.000
==== e(   2) =   -46.25921 eV ==== 
     psi = 0.205*[#   2]+0.205*[#   3]+0.205*[#   4]+0.005*[#  11]+0.005*[#  12]
          +0.005*[#  13]+0.003*[#  10]
    |psi|^2 = 0.632
==== e(   3) =   -46.17275 eV ==== 
     psi = 0.458*[#   2]+0.458*[#   3]+0.458*[#   4]+0.003*[#  11]+0.003*[#  12]
          +0.003*[#  13]
    |psi|^2 = 1.383
==== e(   4) =   -46.17019 eV ==== 
     psi = 0.229*[#   2]+0.229*[#   3]+0.229*[#   4]+0.001*[#  11]+0.001*[#  12]
          +0.001*[#  13]
    |psi|^2 = 0.691
==== e(   5) =    10.87054 eV ==== 
     psi = 0.518*[#  10]+0.134*[#  11]+0.134*[#  12]+0.134*[#  13]+0.025*[#   1]
          +0.017*[#   6]+0.017*[#   7]+0.017*[#   9]+0.001*[#   2]+0.001*[#   3]
          +0.001*[#   4]
    |psi|^2 = 1.000
==== e(   6) =    15.05145 eV ==== 
     psi = 0.305*[#   6]+0.305*[#   7]+0.305*[#   9]+0.056*[#  11]+0.056*[#  12]
          +0.056*[#  13]+0.003*[#   1]+0.001*[#  10]
    |psi|^2 = 1.088
==== e(   7) =    15.61483 eV ==== 
     psi = 0.246*[#   6]+0.246*[#   7]+0.246*[#   9]+0.129*[#   5]+0.129*[#   8]
          +0.007*[#  11]+0.007*[#  12]+0.007*[#  13]
    |psi|^2 = 1.018
==== e(   8) =    15.62086 eV ==== 
     psi = 0.251*[#   6]+0.251*[#   7]+0.251*[#   9]+0.121*[#   5]+0.121*[#   8]
          +0.010*[#  11]+0.010*[#  12]+0.010*[#  13]
    |psi|^2 = 1.026
==== e(   9) =    16.53651 eV ==== 
     psi = 0.370*[#   5]+0.370*[#   8]+0.086*[#   6]+0.086*[#   7]+0.086*[#   9]
          
    |psi|^2 = 0.999
==== e(  10) =    16.65081 eV ==== 
     psi = 0.378*[#   5]+0.378*[#   8]+0.081*[#   6]+0.081*[#   7]+0.081*[#   9]
          
    |psi|^2 = 0.999

 k =   0.1750000000 -0.1750000000  0.2250000000
==== e(   1) =   -85.88880 eV ==== 
     psi = 0.942*[#   1]+0.019*[#  11]+0.019*[#  12]+0.019*[#  13]
    |psi|^2 = 1.000
==== e(   2) =   -46.22621 eV ==== 
     psi = 0.198*[#   2]+0.198*[#   3]+0.198*[#   4]+0.005*[#  11]+0.005*[#  12]
          +0.005*[#  13]+0.004*[#  10]
    |psi|^2 = 0.614
==== e(   3) =   -46.16785 eV ==== 
     psi = 0.464*[#   2]+0.464*[#   3]+0.464*[#   4]+0.003*[#  11]+0.003*[#  12]
          +0.003*[#  13]
    |psi|^2 = 1.401
==== e(   4) =   -46.16545 eV ==== 
     psi = 0.232*[#   2]+0.232*[#   3]+0.232*[#   4]+0.001*[#  11]+0.001*[#  12]
          +0.001*[#  13]
    |psi|^2 = 0.700
==== e(   5) =    10.14081 eV ==== 
     psi = 0.605*[#  10]+0.116*[#  11]+0.116*[#  12]+0.116*[#  13]+0.028*[#   1]
          +0.005*[#   6]+0.005*[#   7]+0.005*[#   9]
    |psi|^2 = 1.000
==== e(   6) =    15.10418 eV ==== 
     psi = 0.321*[#   6]+0.321*[#   7]+0.321*[#   9]+0.040*[#  11]+0.040*[#  12]
          +0.040*[#  13]+0.001*[#   1]
    |psi|^2 = 1.083
==== e(   7) =    15.60361 eV ==== 
     psi = 0.295*[#   6]+0.295*[#   7]+0.295*[#   9]+0.055*[#   5]+0.055*[#   8]
          +0.003*[#  11]+0.003*[#  12]+0.003*[#  13]
    |psi|^2 = 1.004
==== e(   8) =    15.60637 eV ==== 
     psi = 0.294*[#   6]+0.294*[#   7]+0.294*[#   9]+0.056*[#   5]+0.056*[#   8]
          +0.005*[#  11]+0.005*[#  12]+0.005*[#  13]
    |psi|^2 = 1.010
==== e(   9) =    16.45243 eV ==== 
     psi = 0.444*[#   5]+0.444*[#   8]+0.037*[#   6]+0.037*[#   7]+0.037*[#   9]
          
    |psi|^2 = 0.999
==== e(  10) =    16.56228 eV ==== 
     psi = 0.443*[#   5]+0.443*[#   8]+0.037*[#   6]+0.037*[#   7]+0.037*[#   9]
          
    |psi|^2 = 0.999

 k =   0.1250000000 -0.1250000000  0.1750000000
==== e(   1) =   -85.89329 eV ==== 
     psi = 0.946*[#   1]+0.017*[#  11]+0.017*[#  12]+0.017*[#  13]+0.004*[#  10]
          
    |psi|^2 = 1.000
==== e(   2) =   -46.19692 eV ==== 
     psi = 0.188*[#   2]+0.188*[#   3]+0.188*[#   4]+0.004*[#  11]+0.004*[#  12]
          +0.004*[#  13]+0.004*[#  10]
    |psi|^2 = 0.582
==== e(   3) =   -46.16336 eV ==== 
     psi = 0.473*[#   2]+0.473*[#   3]+0.473*[#   4]+0.004*[#  11]+0.004*[#  12]
          +0.004*[#  13]
    |psi|^2 = 1.431
==== e(   4) =   -46.16142 eV ==== 
     psi = 0.237*[#   2]+0.237*[#   3]+0.237*[#   4]+0.002*[#  11]+0.002*[#  12]
          +0.002*[#  13]
    |psi|^2 = 0.715
==== e(   5) =     9.53303 eV ==== 
     psi = 0.713*[#  10]+0.084*[#  11]+0.084*[#  12]+0.084*[#  13]+0.029*[#   1]
          +0.001*[#   6]+0.001*[#   7]+0.001*[#   9]
    |psi|^2 = 1.000
==== e(   6) =    15.20168 eV ==== 
     psi = 0.328*[#   6]+0.328*[#   7]+0.328*[#   9]+0.025*[#  11]+0.025*[#  12]
          +0.025*[#  13]
    |psi|^2 = 1.057
==== e(   7) =    15.54134 eV ==== 
     psi = 0.323*[#   6]+0.323*[#   7]+0.323*[#   9]+0.014*[#   5]+0.014*[#   8]
          
    |psi|^2 = 0.999
==== e(   8) =    15.54598 eV ==== 
     psi = 0.321*[#   6]+0.321*[#   7]+0.321*[#   9]+0.017*[#   5]+0.017*[#   8]
          +0.003*[#  11]+0.003*[#  12]+0.003*[#  13]
    |psi|^2 = 1.003
==== e(   9) =    16.44364 eV ==== 
     psi = 0.485*[#   5]+0.485*[#   8]+0.009*[#   6]+0.009*[#   7]+0.009*[#   9]
          
    |psi|^2 = 0.999
==== e(  10) =    16.53223 eV ==== 
     psi = 0.483*[#   5]+0.483*[#   8]+0.011*[#   6]+0.011*[#   7]+0.011*[#   9]
          
    |psi|^2 = 0.999

 k =   0.0750000000 -0.0750000000  0.1250000000
==== e(   1) =   -85.89677 eV ==== 
     psi = 0.958*[#   1]+0.011*[#  10]+0.011*[#  11]+0.011*[#  12]+0.011*[#  13]
          
    |psi|^2 = 1.000
==== e(   2) =   -46.17421 eV ==== 
     psi = 0.169*[#   2]+0.169*[#   3]+0.169*[#   4]+0.003*[#  11]+0.003*[#  12]
          +0.003*[#  13]+0.002*[#  10]
    |psi|^2 = 0.518
==== e(   3) =   -46.15971 eV ==== 
     psi = 0.492*[#   2]+0.492*[#   3]+0.492*[#   4]+0.004*[#  11]+0.004*[#  12]
          +0.004*[#  13]
    |psi|^2 = 1.489
==== e(   4) =   -46.15848 eV ==== 
     psi = 0.246*[#   2]+0.246*[#   3]+0.246*[#   4]+0.002*[#  11]+0.002*[#  12]
          +0.002*[#  13]
    |psi|^2 = 0.745
==== e(   5) =     9.08864 eV ==== 
     psi = 0.834*[#  10]+0.046*[#  11]+0.046*[#  12]+0.046*[#  13]+0.027*[#   1]
          
    |psi|^2 = 1.000
==== e(   6) =    15.29708 eV ==== 
     psi = 0.331*[#   6]+0.331*[#   7]+0.331*[#   9]+0.011*[#  11]+0.011*[#  12]
          +0.011*[#  13]
    |psi|^2 = 1.025
==== e(   7) =    15.46590 eV ==== 
     psi = 0.331*[#   6]+0.331*[#   7]+0.331*[#   9]+0.002*[#   5]+0.002*[#   8]
          
    |psi|^2 = 0.997
==== e(   8) =    15.47077 eV ==== 
     psi = 0.330*[#   6]+0.330*[#   7]+0.330*[#   9]+0.003*[#   5]+0.003*[#   8]
          +0.001*[#  11]+0.001*[#  12]+0.001*[#  13]
    |psi|^2 = 0.999
==== e(   9) =    16.47501 eV ==== 
     psi = 0.498*[#   5]+0.498*[#   8]+0.001*[#   6]+0.001*[#   7]+0.001*[#   9]
          
    |psi|^2 = 0.999
==== e(  10) =    16.53523 eV ==== 
     psi = 0.497*[#   5]+0.497*[#   8]+0.002*[#   6]+0.002*[#   7]+0.002*[#   9]
          
    |psi|^2 = 0.999

 k =   0.0250000000 -0.0250000000  0.0750000000
==== e(   1) =   -85.89888 eV ==== 
     psi = 0.970*[#   1]+0.019*[#  10]+0.003*[#  11]+0.003*[#  12]+0.003*[#  13]
          
    |psi|^2 = 1.000
==== e(   2) =   -46.16038 eV ==== 
     psi = 0.107*[#   2]+0.107*[#   3]+0.107*[#   4]+0.001*[#  11]+0.001*[#  12]
          +0.001*[#  13]
    |psi|^2 = 0.324
==== e(   3) =   -46.15727 eV ==== 
     psi = 0.553*[#   2]+0.553*[#   3]+0.553*[#   4]+0.006*[#  11]+0.006*[#  12]
          +0.006*[#  13]
    |psi|^2 = 1.676
==== e(   4) =   -46.15692 eV ==== 
     psi = 0.276*[#   2]+0.276*[#   3]+0.276*[#   4]+0.003*[#  11]+0.003*[#  12]
          +0.003*[#  13]
    |psi|^2 = 0.839
==== e(   5) =     8.82867 eV ==== 
     psi = 0.934*[#  10]+0.025*[#   1]+0.014*[#  11]+0.014*[#  12]+0.014*[#  13]
          
    |psi|^2 = 1.000
==== e(   6) =    15.36183 eV ==== 
     psi = 0.332*[#   6]+0.332*[#   7]+0.332*[#   9]+0.001*[#  11]+0.001*[#  12]
          +0.001*[#  13]
    |psi|^2 = 1.001
==== e(   7) =    15.41287 eV ==== 
     psi = 0.332*[#   6]+0.332*[#   7]+0.332*[#   9]
    |psi|^2 = 0.997
==== e(   8) =    15.41418 eV ==== 
     psi = 0.332*[#   6]+0.332*[#   7]+0.332*[#   9]
    |psi|^2 = 0.998
==== e(   9) =    16.51108 eV ==== 
     psi = 0.500*[#   5]+0.500*[#   8]
    |psi|^2 = 0.999
==== e(  10) =    16.54148 eV ==== 
     psi = 0.500*[#   5]+0.500*[#   8]
    |psi|^2 = 1.000

 k =  -0.0250000000  0.1250000000  0.0250000000
==== e(   1) =   -85.89780 eV ==== 
     psi = 0.963*[#   1]+0.014*[#  10]+0.008*[#  11]+0.008*[#  12]+0.008*[#  13]
          
    |psi|^2 = 1.000
==== e(   2) =   -46.16563 eV ==== 
     psi = 0.300*[#   2]+0.300*[#   3]+0.300*[#   4]+0.003*[#  11]+0.003*[#  12]
          +0.003*[#  13]+0.002*[#  10]
    |psi|^2 = 0.910
==== e(   3) =   -46.15924 eV ==== 
     psi = 0.195*[#   2]+0.195*[#   3]+0.195*[#   4]+0.002*[#  11]+0.002*[#  12]
          +0.002*[#  13]
    |psi|^2 = 0.590
==== e(   4) =   -46.15876 eV ==== 
     psi = 0.225*[#   2]+0.225*[#   3]+0.225*[#   4]+0.002*[#  11]+0.002*[#  12]
          +0.002*[#  13]
    |psi|^2 = 0.681
==== e(   5) =     8.95927 eV ==== 
     psi = 0.880*[#  10]+0.031*[#  11]+0.031*[#  12]+0.031*[#  13]+0.026*[#   1]
          
    |psi|^2 = 1.000
==== e(   6) =    15.31558 eV ==== 
     psi = 0.332*[#   6]+0.332*[#   7]+0.332*[#   9]+0.001*[#  11]+0.001*[#  12]
          +0.001*[#  13]
    |psi|^2 = 1.000
==== e(   7) =    15.44887 eV ==== 
     psi = 0.332*[#   6]+0.332*[#   7]+0.332*[#   9]
    |psi|^2 = 0.997
==== e(   8) =    15.45010 eV ==== 
     psi = 0.332*[#   6]+0.332*[#   7]+0.332*[#   9]
    |psi|^2 = 0.997
==== e(   9) =    16.46868 eV ==== 
     psi = 0.499*[#   5]+0.499*[#   8]
    |psi|^2 = 0.999
==== e(  10) =    16.55852 eV ==== 
     psi = 0.500*[#   5]+0.500*[#   8]
    |psi|^2 = 1.000

 k =  -0.0750000000  0.1750000000 -0.0250000000
==== e(   1) =   -85.89573 eV ==== 
     psi = 0.952*[#   1]+0.013*[#  11]+0.013*[#  12]+0.013*[#  13]+0.008*[#  10]
          
    |psi|^2 = 1.000
==== e(   2) =   -46.17788 eV ==== 
     psi = 0.319*[#   2]+0.319*[#   3]+0.319*[#   4]+0.003*[#  11]+0.003*[#  12]
          +0.003*[#  13]+0.003*[#  10]
    |psi|^2 = 0.970
==== e(   3) =   -46.16305 eV ==== 
     psi = 0.029*[#   2]+0.029*[#   3]+0.029*[#   4]
    |psi|^2 = 0.088
==== e(   4) =   -46.16023 eV ==== 
     psi = 0.410*[#   2]+0.410*[#   3]+0.410*[#   4]+0.004*[#  11]+0.004*[#  12]
          +0.004*[#  13]
    |psi|^2 = 1.243
==== e(   5) =     9.21751 eV ==== 
     psi = 0.792*[#  10]+0.059*[#  11]+0.059*[#  12]+0.059*[#  13]+0.028*[#   1]
          
    |psi|^2 = 1.000
==== e(   6) =    15.24170 eV ==== 
     psi = 0.331*[#   6]+0.331*[#   7]+0.331*[#   9]+0.009*[#  11]+0.009*[#  12]
          +0.009*[#  13]
    |psi|^2 = 1.021
==== e(   7) =    15.50589 eV ==== 
     psi = 0.332*[#   6]+0.332*[#   7]+0.332*[#   9]
    |psi|^2 = 0.998
==== e(   8) =    15.51359 eV ==== 
     psi = 0.329*[#   6]+0.329*[#   7]+0.329*[#   9]+0.004*[#   5]+0.004*[#   8]
          +0.001*[#  11]+0.001*[#  12]+0.001*[#  13]
    |psi|^2 = 0.998
==== e(   9) =    16.41091 eV ==== 
     psi = 0.498*[#   5]+0.498*[#   8]
    |psi|^2 = 0.999
==== e(  10) =    16.57544 eV ==== 
     psi = 0.497*[#   5]+0.497*[#   8]+0.002*[#   6]+0.002*[#   7]+0.002*[#   9]
          
    |psi|^2 = 1.000

 k =  -0.1250000000  0.2250000000 -0.0750000000
==== e(   1) =   -85.89231 eV ==== 
     psi = 0.943*[#   1]+0.018*[#  11]+0.018*[#  12]+0.018*[#  13]+0.003*[#  10]
          
    |psi|^2 = 1.000
==== e(   2) =   -46.19970 eV ==== 
     psi = 0.288*[#   2]+0.288*[#   3]+0.288*[#   4]+0.004*[#  11]+0.004*[#  12]
          +0.004*[#  13]+0.004*[#  10]
    |psi|^2 = 0.881
==== e(   3) =   -46.16755 eV ==== 
     psi = 0.098*[#   2]+0.098*[#   3]+0.098*[#   4]
    |psi|^2 = 0.296
==== e(   4) =   -46.16270 eV ==== 
     psi = 0.414*[#   2]+0.414*[#   3]+0.414*[#   4]+0.003*[#  11]+0.003*[#  12]
          +0.003*[#  13]
    |psi|^2 = 1.252
==== e(   5) =     9.65882 eV ==== 
     psi = 0.683*[#  10]+0.094*[#  11]+0.094*[#  12]+0.094*[#  13]+0.029*[#   1]
          +0.001*[#   6]+0.001*[#   7]+0.001*[#   9]
    |psi|^2 = 1.000
==== e(   6) =    15.14299 eV ==== 
     psi = 0.329*[#   6]+0.329*[#   7]+0.329*[#   9]+0.021*[#  11]+0.021*[#  12]
          +0.021*[#  13]
    |psi|^2 = 1.050
==== e(   7) =    15.58341 eV ==== 
     psi = 0.321*[#   6]+0.321*[#   7]+0.321*[#   9]+0.016*[#   5]+0.016*[#   8]
          +0.003*[#  11]+0.003*[#  12]+0.003*[#  13]
    |psi|^2 = 1.004
==== e(   8) =    15.58915 eV ==== 
     psi = 0.320*[#   6]+0.320*[#   7]+0.320*[#   9]+0.017*[#   5]+0.017*[#   8]
          +0.002*[#  11]+0.002*[#  12]+0.002*[#  13]
    |psi|^2 = 0.999
==== e(   9) =    16.36101 eV ==== 
     psi = 0.485*[#   5]+0.485*[#   8]+0.009*[#   6]+0.009*[#   7]+0.009*[#   9]
          
    |psi|^2 = 0.999
==== e(  10) =    16.59664 eV ==== 
     psi = 0.480*[#   5]+0.480*[#   8]+0.013*[#   6]+0.013*[#   7]+0.013*[#   9]
          
    |psi|^2 = 0.999

 k =  -0.1750000000  0.2750000000 -0.1250000000
==== e(   1) =   -85.88789 eV ==== 
     psi = 0.940*[#   1]+0.020*[#  11]+0.020*[#  12]+0.020*[#  13]
    |psi|^2 = 1.000
==== e(   2) =   -46.22810 eV ==== 
     psi = 0.269*[#   2]+0.269*[#   3]+0.269*[#   4]+0.005*[#  11]+0.005*[#  12]
          +0.005*[#  13]+0.004*[#  10]
    |psi|^2 = 0.824
==== e(   3) =   -46.17262 eV ==== 
     psi = 0.138*[#   2]+0.138*[#   3]+0.138*[#   4]
    |psi|^2 = 0.415
==== e(   4) =   -46.16643 eV ==== 
     psi = 0.418*[#   2]+0.418*[#   3]+0.418*[#   4]+0.003*[#  11]+0.003*[#  12]
          +0.003*[#  13]
    |psi|^2 = 1.263
==== e(   5) =    10.26216 eV ==== 
     psi = 0.583*[#  10]+0.123*[#  11]+0.123*[#  12]+0.123*[#  13]+0.029*[#   1]
          +0.005*[#   6]+0.005*[#   7]+0.005*[#   9]+0.001*[#   5]+0.001*[#   8]
          
    |psi|^2 = 1.000
==== e(   6) =    15.04258 eV ==== 
     psi = 0.323*[#   6]+0.323*[#   7]+0.323*[#   9]+0.034*[#  11]+0.034*[#  12]
          +0.034*[#  13]
    |psi|^2 = 1.072
==== e(   7) =    15.63106 eV ==== 
     psi = 0.280*[#   6]+0.280*[#   7]+0.280*[#   9]+0.076*[#   5]+0.076*[#   8]
          +0.007*[#  11]+0.007*[#  12]+0.007*[#  13]
    |psi|^2 = 1.012
==== e(   8) =    15.65539 eV ==== 
     psi = 0.298*[#   6]+0.298*[#   7]+0.298*[#   9]+0.050*[#   5]+0.050*[#   8]
          +0.003*[#  11]+0.003*[#  12]+0.003*[#  13]
    |psi|^2 = 1.004
==== e(   9) =    16.36463 eV ==== 
     psi = 0.433*[#   5]+0.433*[#   8]+0.042*[#   6]+0.042*[#   7]+0.042*[#   9]
          +0.002*[#  10]
    |psi|^2 = 0.999
==== e(  10) =    16.65001 eV ==== 
     psi = 0.438*[#   5]+0.438*[#   8]+0.041*[#   6]+0.041*[#   7]+0.041*[#   9]
          
    |psi|^2 = 0.999

 k =  -0.2250000000  0.3250000000 -0.1750000000
==== e(   1) =   -85.88289 eV ==== 
     psi = 0.944*[#   1]+0.019*[#  11]+0.019*[#  12]+0.019*[#  13]
    |psi|^2 = 1.000
==== e(   2) =   -46.26012 eV ==== 
     psi = 0.256*[#   2]+0.256*[#   3]+0.256*[#   4]+0.005*[#  11]+0.005*[#  12]
          +0.005*[#  13]+0.003*[#  10]
    |psi|^2 = 0.785
==== e(   3) =   -46.17784 eV ==== 
     psi = 0.161*[#   2]+0.161*[#   3]+0.161*[#   4]
    |psi|^2 = 0.485
==== e(   4) =   -46.17108 eV ==== 
     psi = 0.423*[#   2]+0.423*[#   3]+0.423*[#   4]+0.003*[#  11]+0.003*[#  12]
          +0.003*[#  13]
    |psi|^2 = 1.278
==== e(   5) =    10.98617 eV ==== 
     psi = 0.500*[#  10]+0.140*[#  11]+0.140*[#  12]+0.140*[#  13]+0.025*[#   1]
          +0.016*[#   6]+0.016*[#   7]+0.016*[#   9]+0.002*[#   5]+0.002*[#   8]
          +0.001*[#   2]+0.001*[#   3]+0.001*[#   4]
    |psi|^2 = 1.000
==== e(   6) =    14.98212 eV ==== 
     psi = 0.309*[#   6]+0.309*[#   7]+0.309*[#   9]+0.049*[#  11]+0.049*[#  12]
          +0.049*[#  13]+0.002*[#   1]
    |psi|^2 = 1.077
==== e(   7) =    15.61618 eV ==== 
     psi = 0.224*[#   6]+0.224*[#   7]+0.224*[#   9]+0.160*[#   5]+0.160*[#   8]
          +0.012*[#  11]+0.012*[#  12]+0.012*[#  13]
    |psi|^2 = 1.027
==== e(   8) =    15.67365 eV ==== 
     psi = 0.252*[#   6]+0.252*[#   7]+0.252*[#   9]+0.119*[#   5]+0.119*[#   8]
          +0.008*[#  11]+0.008*[#  12]+0.008*[#  13]
    |psi|^2 = 1.017
==== e(   9) =    16.46777 eV ==== 
     psi = 0.345*[#   5]+0.345*[#   8]+0.099*[#   6]+0.099*[#   7]+0.099*[#   9]
          +0.003*[#  11]+0.003*[#  12]+0.003*[#  13]+0.003*[#  10]
    |psi|^2 = 0.999
==== e(  10) =    16.75739 eV ==== 
     psi = 0.372*[#   5]+0.372*[#   8]+0.084*[#   6]+0.084*[#   7]+0.084*[#   9]
          +0.001*[#  10]+0.001*[#  11]+0.001*[#  12]+0.001*[#  13]
    |psi|^2 = 0.999

 k =  -0.2750000000  0.3750000000 -0.2250000000
==== e(   1) =   -85.87781 eV ==== 
     psi = 0.954*[#   1]+0.015*[#  11]+0.015*[#  12]+0.015*[#  13]
    |psi|^2 = 1.000
==== e(   2) =   -46.29257 eV ==== 
     psi = 0.246*[#   2]+0.246*[#   3]+0.246*[#   4]+0.004*[#  11]+0.004*[#  12]
          +0.004*[#  13]+0.002*[#  10]
    |psi|^2 = 0.754
==== e(   3) =   -46.18277 eV ==== 
     psi = 0.176*[#   2]+0.176*[#   3]+0.176*[#   4]
    |psi|^2 = 0.530
==== e(   4) =   -46.17619 eV ==== 
     psi = 0.429*[#   2]+0.429*[#   3]+0.429*[#   4]+0.003*[#  11]+0.003*[#  12]
          +0.003*[#  13]
    |psi|^2 = 1.296
==== e(   5) =    11.74871 eV ==== 
     psi = 0.430*[#  10]+0.135*[#  11]+0.135*[#  12]+0.135*[#  13]+0.045*[#   6]
          +0.045*[#   7]+0.045*[#   9]+0.018*[#   1]+0.003*[#   5]+0.003*[#   8]
          +0.001*[#   2]+0.001*[#   3]+0.001*[#   4]
    |psi|^2 = 0.999
==== e(   6) =    15.03215 eV ==== 
     psi = 0.276*[#   6]+0.276*[#   7]+0.276*[#   9]+0.067*[#  11]+0.067*[#  12]
          +0.067*[#  13]+0.006*[#  10]+0.004*[#   1]+0.004*[#   5]+0.004*[#   8]
          
    |psi|^2 = 1.048
==== e(   7) =    15.54922 eV ==== 
     psi = 0.228*[#   5]+0.228*[#   8]+0.179*[#   6]+0.179*[#   7]+0.179*[#   9]
          +0.021*[#  11]+0.021*[#  12]+0.021*[#  13]
    |psi|^2 = 1.055
==== e(   8) =    15.64160 eV ==== 
     psi = 0.208*[#   6]+0.208*[#   7]+0.208*[#   9]+0.185*[#   5]+0.185*[#   8]
          +0.017*[#  11]+0.017*[#  12]+0.017*[#  13]
    |psi|^2 = 1.046
==== e(   9) =    16.66124 eV ==== 
     psi = 0.273*[#   5]+0.273*[#   8]+0.144*[#   6]+0.144*[#   7]+0.144*[#   9]
          +0.006*[#  11]+0.006*[#  12]+0.006*[#  13]+0.004*[#  10]
    |psi|^2 = 0.999
==== e(  10) =    16.91521 eV ==== 
     psi = 0.305*[#   5]+0.305*[#   8]+0.126*[#   6]+0.126*[#   7]+0.126*[#   9]
          +0.003*[#  11]+0.003*[#  12]+0.003*[#  13]+0.003*[#  10]
    |psi|^2 = 1.000

 k =  -0.3250000000  0.4250000000 -0.2750000000
==== e(   1) =   -85.87314 eV ==== 
     psi = 0.967*[#   1]+0.010*[#  11]+0.010*[#  12]+0.010*[#  13]
    |psi|^2 = 1.000
==== e(   2) =   -46.32228 eV ==== 
     psi = 0.238*[#   2]+0.238*[#   3]+0.238*[#   4]+0.004*[#  11]+0.004*[#  12]
          +0.004*[#  13]+0.001*[#  10]
    |psi|^2 = 0.728
==== e(   3) =   -46.18697 eV ==== 
     psi = 0.186*[#   2]+0.186*[#   3]+0.186*[#   4]+0.001*[#  11]+0.001*[#  12]
          +0.001*[#  13]
    |psi|^2 = 0.562
==== e(   4) =   -46.18122 eV ==== 
     psi = 0.434*[#   2]+0.434*[#   3]+0.434*[#   4]+0.003*[#  11]+0.003*[#  12]
          +0.003*[#  13]
    |psi|^2 = 1.313
==== e(   5) =    12.40481 eV ==== 
     psi = 0.360*[#  10]+0.106*[#   6]+0.106*[#   7]+0.106*[#   9]+0.100*[#  11]
          +0.100*[#  12]+0.100*[#  13]+0.010*[#   1]+0.003*[#   5]+0.003*[#   8]
          +0.001*[#   2]+0.001*[#   3]+0.001*[#   4]
    |psi|^2 = 0.998
==== e(   6) =    15.29460 eV ==== 
     psi = 0.206*[#   6]+0.206*[#   7]+0.206*[#   9]+0.093*[#  11]+0.093*[#  12]
          +0.093*[#  13]+0.023*[#   5]+0.023*[#   8]+0.019*[#  10]+0.006*[#   1]
          +0.001*[#   2]+0.001*[#   3]+0.001*[#   4]
    |psi|^2 = 0.971
==== e(   7) =    15.46581 eV ==== 
     psi = 0.257*[#   5]+0.257*[#   8]+0.160*[#   6]+0.160*[#   7]+0.160*[#   9]
          +0.036*[#  11]+0.036*[#  12]+0.036*[#  13]
    |psi|^2 = 1.103
==== e(   8) =    15.58370 eV ==== 
     psi = 0.232*[#   5]+0.232*[#   8]+0.177*[#   6]+0.177*[#   7]+0.177*[#   9]
          +0.035*[#  11]+0.035*[#  12]+0.035*[#  13]
    |psi|^2 = 1.099
==== e(   9) =    16.89517 eV ==== 
     psi = 0.239*[#   5]+0.239*[#   8]+0.164*[#   6]+0.164*[#   7]+0.164*[#   9]
          +0.008*[#  11]+0.008*[#  12]+0.008*[#  13]+0.005*[#  10]
    |psi|^2 = 0.999
==== e(  10) =    17.11852 eV ==== 
     psi = 0.242*[#   5]+0.242*[#   8]+0.155*[#   6]+0.155*[#   7]+0.155*[#   9]
          +0.013*[#  11]+0.013*[#  12]+0.013*[#  13]+0.010*[#  10]
    |psi|^2 = 1.000

 k =  -0.3750000000  0.4750000000 -0.3250000000
==== e(   1) =   -85.86934 eV ==== 
     psi = 0.981*[#   1]+0.006*[#  11]+0.006*[#  12]+0.006*[#  13]
    |psi|^2 = 1.000
==== e(   2) =   -46.34639 eV ==== 
     psi = 0.232*[#   2]+0.232*[#   3]+0.232*[#   4]+0.003*[#  11]+0.003*[#  12]
          +0.003*[#  13]
    |psi|^2 = 0.705
==== e(   3) =   -46.19015 eV ==== 
     psi = 0.199*[#   2]+0.199*[#   3]+0.199*[#   4]+0.001*[#  11]+0.001*[#  12]
          +0.001*[#  13]
    |psi|^2 = 0.602
==== e(   4) =   -46.18555 eV ==== 
     psi = 0.435*[#   2]+0.435*[#   3]+0.435*[#   4]+0.003*[#  11]+0.003*[#  12]
          +0.003*[#  13]
    |psi|^2 = 1.316
==== e(   5) =    12.81533 eV ==== 
     psi = 0.291*[#  10]+0.181*[#   6]+0.181*[#   7]+0.181*[#   9]+0.051*[#  11]
          +0.051*[#  12]+0.051*[#  13]+0.003*[#   1]+0.002*[#   5]+0.002*[#   8]
          
    |psi|^2 = 0.997
==== e(   6) =    15.38808 eV ==== 
     psi = 0.298*[#   5]+0.298*[#   8]+0.129*[#   6]+0.129*[#   7]+0.129*[#   9]
          +0.015*[#  11]+0.015*[#  12]+0.015*[#  13]
    |psi|^2 = 1.029
==== e(   7) =    15.52144 eV ==== 
     psi = 0.262*[#   5]+0.262*[#   8]+0.157*[#   6]+0.157*[#   7]+0.157*[#   9]
          
    |psi|^2 = 0.996
==== e(   8) =    15.79747 eV ==== 
     psi = 0.159*[#   6]+0.159*[#   7]+0.159*[#   9]+0.099*[#  11]+0.099*[#  12]
          +0.099*[#  13]+0.029*[#  10]+0.028*[#   5]+0.028*[#   8]+0.004*[#   1]
          +0.001*[#   2]+0.001*[#   3]+0.001*[#   4]
    |psi|^2 = 0.865
==== e(   9) =    17.08684 eV ==== 
     psi = 0.229*[#   5]+0.229*[#   8]+0.176*[#   6]+0.176*[#   7]+0.176*[#   9]
          +0.004*[#  11]+0.004*[#  12]+0.004*[#  13]+0.001*[#  10]
    |psi|^2 = 1.000
==== e(  10) =    17.43911 eV ==== 
     psi = 0.177*[#   5]+0.177*[#   8]+0.151*[#   6]+0.151*[#   7]+0.151*[#   9]
          +0.055*[#  11]+0.055*[#  12]+0.055*[#  13]+0.026*[#  10]+0.002*[#   1]
          
    |psi|^2 = 1.000

 k =  -0.4250000000  0.5250000000 -0.3750000000
==== e(   1) =   -85.86679 eV ==== 
     psi = 0.991*[#   1]+0.002*[#  11]+0.002*[#  12]+0.002*[#  13]
    |psi|^2 = 1.000
==== e(   2) =   -46.36255 eV ==== 
     psi = 0.226*[#   2]+0.226*[#   3]+0.226*[#   4]+0.003*[#  11]+0.003*[#  12]
          +0.003*[#  13]
    |psi|^2 = 0.685
==== e(   3) =   -46.19230 eV ==== 
     psi = 0.236*[#   2]+0.236*[#   3]+0.236*[#   4]+0.002*[#  11]+0.002*[#  12]
          +0.002*[#  13]
    |psi|^2 = 0.713
==== e(   4) =   -46.18846 eV ==== 
     psi = 0.411*[#   2]+0.411*[#   3]+0.411*[#   4]+0.003*[#  11]+0.003*[#  12]
          +0.003*[#  13]
    |psi|^2 = 1.243
==== e(   5) =    12.99831 eV ==== 
     psi = 0.247*[#  10]+0.231*[#   6]+0.231*[#   7]+0.231*[#   9]+0.018*[#  11]
          +0.018*[#  12]+0.018*[#  13]+0.001*[#   1]
    |psi|^2 = 0.997
==== e(   6) =    15.33719 eV ==== 
     psi = 0.305*[#   5]+0.305*[#   8]+0.126*[#   6]+0.126*[#   7]+0.126*[#   9]
          +0.005*[#  11]+0.005*[#  12]+0.005*[#  13]
    |psi|^2 = 1.001
==== e(   7) =    15.47527 eV ==== 
     psi = 0.281*[#   5]+0.281*[#   8]+0.145*[#   6]+0.145*[#   7]+0.145*[#   9]
          
    |psi|^2 = 0.997
==== e(   8) =    16.28208 eV ==== 
     psi = 0.141*[#   6]+0.141*[#   7]+0.141*[#   9]+0.094*[#  11]+0.094*[#  12]
          +0.094*[#  13]+0.074*[#   5]+0.074*[#   8]+0.013*[#  10]+0.001*[#   1]
          +0.001*[#   2]+0.001*[#   3]+0.001*[#   4]
    |psi|^2 = 0.870
==== e(   9) =    17.18780 eV ==== 
     psi = 0.217*[#   5]+0.217*[#   8]+0.188*[#   6]+0.188*[#   7]+0.188*[#   9]
          
    |psi|^2 = 1.000
==== e(  10) =    17.94958 eV ==== 
     psi = 0.140*[#  11]+0.140*[#  12]+0.140*[#  13]+0.119*[#   5]+0.119*[#   8]
          +0.103*[#   6]+0.103*[#   7]+0.103*[#   9]+0.027*[#  10]+0.001*[#   2]
          +0.001*[#   3]+0.001*[#   4]+0.001*[#   1]
    |psi|^2 = 1.000

 k =   0.5250000000 -0.4250000000  0.5750000000
==== e(   1) =   -85.86572 eV ==== 
     psi = 0.996*[#   1]
    |psi|^2 = 1.000
==== e(   2) =   -46.36925 eV ==== 
     psi = 0.220*[#   2]+0.220*[#   3]+0.220*[#   4]+0.002*[#  11]+0.002*[#  12]
          +0.002*[#  13]
    |psi|^2 = 0.669
==== e(   3) =   -46.19364 eV ==== 
     psi = 0.304*[#   2]+0.304*[#   3]+0.304*[#   4]+0.002*[#  11]+0.002*[#  12]
          +0.002*[#  13]
    |psi|^2 = 0.921
==== e(   4) =   -46.18924 eV ==== 
     psi = 0.354*[#   2]+0.354*[#   3]+0.354*[#   4]+0.003*[#  11]+0.003*[#  12]
          +0.003*[#  13]
    |psi|^2 = 1.071
==== e(   5) =    13.05298 eV ==== 
     psi = 0.248*[#   6]+0.248*[#   7]+0.248*[#   9]+0.231*[#  10]+0.007*[#  11]
          +0.007*[#  12]+0.007*[#  13]
    |psi|^2 = 0.996
==== e(   6) =    15.31771 eV ==== 
     psi = 0.305*[#   5]+0.305*[#   8]+0.125*[#   6]+0.125*[#   7]+0.125*[#   9]
          +0.002*[#  11]+0.002*[#  12]+0.002*[#  13]
    |psi|^2 = 0.994
==== e(   7) =    15.45315 eV ==== 
     psi = 0.289*[#   5]+0.289*[#   8]+0.139*[#   6]+0.139*[#   7]+0.139*[#   9]
          
    |psi|^2 = 0.998
==== e(   8) =    16.49865 eV ==== 
     psi = 0.145*[#   6]+0.145*[#   7]+0.145*[#   9]+0.101*[#   5]+0.101*[#   8]
          +0.081*[#  11]+0.081*[#  12]+0.081*[#  13]
    |psi|^2 = 0.887
==== e(   9) =    17.20992 eV ==== 
     psi = 0.209*[#   5]+0.209*[#   8]+0.194*[#   6]+0.194*[#   7]+0.194*[#   9]
          
    |psi|^2 = 1.000
==== e(  10) =    18.35696 eV ==== 
     psi = 0.207*[#  11]+0.207*[#  12]+0.207*[#  13]+0.091*[#   5]+0.091*[#   8]
          +0.063*[#   6]+0.063*[#   7]+0.063*[#   9]+0.002*[#   2]+0.002*[#   3]
          +0.002*[#   4]
    |psi|^2 = 1.000

 k =   0.4750000000 -0.3750000000  0.5250000000
==== e(   1) =   -85.86626 eV ==== 
     psi = 0.994*[#   1]+0.002*[#  11]+0.002*[#  12]+0.002*[#  13]
    |psi|^2 = 1.000
==== e(   2) =   -46.36584 eV ==== 
     psi = 0.215*[#   2]+0.215*[#   3]+0.215*[#   4]+0.003*[#  11]+0.003*[#  12]
          +0.003*[#  13]
    |psi|^2 = 0.654
==== e(   3) =   -46.19392 eV ==== 
     psi = 0.356*[#   2]+0.356*[#   3]+0.356*[#   4]+0.003*[#  11]+0.003*[#  12]
          +0.003*[#  13]
    |psi|^2 = 1.077
==== e(   4) =   -46.18792 eV ==== 
     psi = 0.314*[#   2]+0.314*[#   3]+0.314*[#   4]+0.003*[#  11]+0.003*[#  12]
          +0.003*[#  13]
    |psi|^2 = 0.950
==== e(   5) =    13.02750 eV ==== 
     psi = 0.240*[#   6]+0.240*[#   7]+0.240*[#   9]+0.239*[#  10]+0.012*[#  11]
          +0.012*[#  12]+0.012*[#  13]
    |psi|^2 = 0.997
==== e(   6) =    15.33213 eV ==== 
     psi = 0.300*[#   5]+0.300*[#   8]+0.129*[#   6]+0.129*[#   7]+0.129*[#   9]
          +0.005*[#  11]+0.005*[#  12]+0.005*[#  13]
    |psi|^2 = 1.003
==== e(   7) =    15.46011 eV ==== 
     psi = 0.289*[#   5]+0.289*[#   8]+0.139*[#   6]+0.139*[#   7]+0.139*[#   9]
          
    |psi|^2 = 0.998
==== e(   8) =    16.40988 eV ==== 
     psi = 0.137*[#   6]+0.137*[#   7]+0.137*[#   9]+0.090*[#  11]+0.090*[#  12]
          +0.090*[#  13]+0.090*[#   5]+0.090*[#   8]+0.006*[#  10]+0.001*[#   2]
          +0.001*[#   3]+0.001*[#   4]
    |psi|^2 = 0.871
==== e(   9) =    17.16020 eV ==== 
     psi = 0.209*[#   5]+0.209*[#   8]+0.193*[#   6]+0.193*[#   7]+0.193*[#   9]
          
    |psi|^2 = 1.000
==== e(  10) =    18.14788 eV ==== 
     psi = 0.166*[#  11]+0.166*[#  12]+0.166*[#  13]+0.108*[#   5]+0.108*[#   8]
          +0.086*[#   6]+0.086*[#   7]+0.086*[#   9]+0.020*[#  10]+0.002*[#   2]
          +0.002*[#   3]+0.002*[#   4]
    |psi|^2 = 1.000

 k =   0.4250000000 -0.3250000000  0.4750000000
==== e(   1) =   -85.86834 eV ==== 
     psi = 0.985*[#   1]+0.005*[#  11]+0.005*[#  12]+0.005*[#  13]
    |psi|^2 = 1.000
==== e(   2) =   -46.35264 eV ==== 
     psi = 0.210*[#   2]+0.210*[#   3]+0.210*[#   4]+0.003*[#  11]+0.003*[#  12]
          +0.003*[#  13]
    |psi|^2 = 0.642
==== e(   3) =   -46.19278 eV ==== 
     psi = 0.386*[#   2]+0.386*[#   3]+0.386*[#   4]+0.003*[#  11]+0.003*[#  12]
          +0.003*[#  13]
    |psi|^2 = 1.168
==== e(   4) =   -46.18496 eV ==== 
     psi = 0.296*[#   2]+0.296*[#   3]+0.296*[#   4]+0.002*[#  11]+0.002*[#  12]
          +0.002*[#  13]
    |psi|^2 = 0.896
==== e(   5) =    12.89770 eV ==== 
     psi = 0.273*[#  10]+0.202*[#   6]+0.202*[#   7]+0.202*[#   9]+0.038*[#  11]
          +0.038*[#  12]+0.038*[#  13]+0.002*[#   1]+0.001*[#   5]+0.001*[#   8]
          
    |psi|^2 = 0.997
==== e(   6) =    15.37776 eV ==== 
     psi = 0.287*[#   5]+0.287*[#   8]+0.138*[#   6]+0.138*[#   7]+0.138*[#   9]
          +0.015*[#  11]+0.015*[#  12]+0.015*[#  13]
    |psi|^2 = 1.033
==== e(   7) =    15.49525 eV ==== 
     psi = 0.279*[#   5]+0.279*[#   8]+0.146*[#   6]+0.146*[#   7]+0.146*[#   9]
          +0.001*[#  11]+0.001*[#  12]+0.001*[#  13]
    |psi|^2 = 0.999
==== e(   8) =    16.00394 eV ==== 
     psi = 0.136*[#   6]+0.136*[#   7]+0.136*[#   9]+0.103*[#  11]+0.103*[#  12]
          +0.103*[#  13]+0.048*[#   5]+0.048*[#   8]+0.026*[#  10]+0.003*[#   1]
          +0.001*[#   2]+0.001*[#   3]+0.001*[#   4]
    |psi|^2 = 0.846
==== e(   9) =    17.04036 eV ==== 
     psi = 0.216*[#   5]+0.216*[#   8]+0.187*[#   6]+0.187*[#   7]+0.187*[#   9]
          +0.002*[#  11]+0.002*[#  12]+0.002*[#  13]
    |psi|^2 = 1.000
==== e(  10) =    17.65119 eV ==== 
     psi = 0.164*[#   5]+0.164*[#   8]+0.139*[#   6]+0.139*[#   7]+0.139*[#   9]
          +0.074*[#  11]+0.074*[#  12]+0.074*[#  13]+0.030*[#  10]+0.002*[#   1]
          
    |psi|^2 = 1.000

 k =   0.3750000000 -0.2750000000  0.4250000000
==== e(   1) =   -85.87177 eV ==== 
     psi = 0.972*[#   1]+0.009*[#  11]+0.009*[#  12]+0.009*[#  13]
    |psi|^2 = 1.000
==== e(   2) =   -46.33093 eV ==== 
     psi = 0.205*[#   2]+0.205*[#   3]+0.205*[#   4]+0.004*[#  11]+0.004*[#  12]
          +0.004*[#  13]+0.001*[#  10]
    |psi|^2 = 0.629
==== e(   3) =   -46.19015 eV ==== 
     psi = 0.407*[#   2]+0.407*[#   3]+0.407*[#   4]+0.003*[#  11]+0.003*[#  12]
          +0.003*[#  13]
    |psi|^2 = 1.229
==== e(   4) =   -46.18082 eV ==== 
     psi = 0.290*[#   2]+0.290*[#   3]+0.290*[#   4]+0.002*[#  11]+0.002*[#  12]
          +0.002*[#  13]
    |psi|^2 = 0.875
==== e(   5) =    12.57349 eV ==== 
     psi = 0.336*[#  10]+0.132*[#   6]+0.132*[#   7]+0.132*[#   9]+0.084*[#  11]
          +0.084*[#  12]+0.084*[#  13]+0.007*[#   1]+0.002*[#   5]+0.002*[#   8]
          
    |psi|^2 = 0.998
==== e(   6) =    15.44604 eV ==== 
     psi = 0.209*[#   5]+0.209*[#   8]+0.188*[#   6]+0.188*[#   7]+0.188*[#   9]
          +0.033*[#  11]+0.033*[#  12]+0.033*[#  13]+0.003*[#  10]
    |psi|^2 = 1.086
==== e(   7) =    15.45878 eV ==== 
     psi = 0.152*[#   6]+0.152*[#   7]+0.152*[#   9]+0.079*[#   5]+0.079*[#   8]
          +0.079*[#  11]+0.079*[#  12]+0.079*[#  13]+0.022*[#  10]+0.005*[#   1]
          
    |psi|^2 = 0.882
==== e(   8) =    15.55539 eV ==== 
     psi = 0.252*[#   5]+0.252*[#   8]+0.160*[#   6]+0.160*[#   7]+0.160*[#   9]
          +0.003*[#  11]+0.003*[#  12]+0.003*[#  13]
    |psi|^2 = 0.992
==== e(   9) =    16.86079 eV ==== 
     psi = 0.233*[#   5]+0.233*[#   8]+0.175*[#   6]+0.175*[#   7]+0.175*[#   9]
          +0.003*[#  11]+0.003*[#  12]+0.003*[#  13]
    |psi|^2 = 0.999
==== e(  10) =    17.29292 eV ==== 
     psi = 0.221*[#   5]+0.221*[#   8]+0.156*[#   6]+0.156*[#   7]+0.156*[#   9]
          +0.024*[#  11]+0.024*[#  12]+0.024*[#  13]+0.017*[#  10]+0.001*[#   1]
          
    |psi|^2 = 1.000

 k =   0.3250000000 -0.2250000000  0.3750000000
==== e(   1) =   -85.87620 eV ==== 
     psi = 0.959*[#   1]+0.014*[#  11]+0.014*[#  12]+0.014*[#  13]
    |psi|^2 = 1.000
==== e(   2) =   -46.30281 eV ==== 
     psi = 0.198*[#   2]+0.198*[#   3]+0.198*[#   4]+0.005*[#  11]+0.005*[#  12]
          +0.005*[#  13]+0.002*[#  10]
    |psi|^2 = 0.613
==== e(   3) =   -46.18622 eV ==== 
     psi = 0.424*[#   2]+0.424*[#   3]+0.424*[#   4]+0.002*[#  11]+0.002*[#  12]
          +0.002*[#  13]
    |psi|^2 = 1.279
==== e(   4) =   -46.17596 eV ==== 
     psi = 0.289*[#   2]+0.289*[#   3]+0.289*[#   4]+0.002*[#  11]+0.002*[#  12]
          +0.002*[#  13]
    |psi|^2 = 0.872
==== e(   5) =    11.98927 eV ==== 
     psi = 0.407*[#  10]+0.127*[#  11]+0.127*[#  12]+0.127*[#  13]+0.062*[#   6]
          +0.062*[#   7]+0.062*[#   9]+0.015*[#   1]+0.002*[#   5]+0.002*[#   8]
          +0.001*[#   2]+0.001*[#   3]+0.001*[#   4]
    |psi|^2 = 0.999
==== e(   6) =    15.10285 eV ==== 
     psi = 0.259*[#   6]+0.259*[#   7]+0.259*[#   9]+0.092*[#  11]+0.092*[#  12]
          +0.092*[#  13]+0.010*[#  10]+0.005*[#   1]+0.004*[#   5]+0.004*[#   8]
          
    |psi|^2 = 1.076
==== e(   7) =    15.52665 eV ==== 
     psi = 0.231*[#   5]+0.231*[#   8]+0.175*[#   6]+0.175*[#   7]+0.175*[#   9]
          +0.022*[#  11]+0.022*[#  12]+0.022*[#  13]
    |psi|^2 = 1.053
==== e(   8) =    15.61868 eV ==== 
     psi = 0.217*[#   5]+0.217*[#   8]+0.187*[#   6]+0.187*[#   7]+0.187*[#   9]
          +0.021*[#  11]+0.021*[#  12]+0.021*[#  13]
    |psi|^2 = 1.059
==== e(   9) =    16.65704 eV ==== 
     psi = 0.270*[#   5]+0.270*[#   8]+0.151*[#   6]+0.151*[#   7]+0.151*[#   9]
          +0.002*[#  11]+0.002*[#  12]+0.002*[#  13]
    |psi|^2 = 0.999
==== e(  10) =    17.04336 eV ==== 
     psi = 0.272*[#   5]+0.272*[#   8]+0.140*[#   6]+0.140*[#   7]+0.140*[#   9]
          +0.008*[#  11]+0.008*[#  12]+0.008*[#  13]+0.008*[#  10]
    |psi|^2 = 1.000

 k =   0.2750000000 -0.1750000000  0.3250000000
==== e(   1) =   -85.88120 eV ==== 
     psi = 0.947*[#   1]+0.018*[#  11]+0.018*[#  12]+0.018*[#  13]
    |psi|^2 = 1.000
==== e(   2) =   -46.27101 eV ==== 
     psi = 0.190*[#   2]+0.190*[#   3]+0.190*[#   4]+0.006*[#  11]+0.006*[#  12]
          +0.006*[#  13]+0.003*[#  10]
    |psi|^2 = 0.592
==== e(   3) =   -46.18132 eV ==== 
     psi = 0.440*[#   2]+0.440*[#   3]+0.440*[#   4]+0.002*[#  11]+0.002*[#  12]
          +0.002*[#  13]
    |psi|^2 = 1.328
==== e(   4) =   -46.17090 eV ==== 
     psi = 0.292*[#   2]+0.292*[#   3]+0.292*[#   4]+0.002*[#  11]+0.002*[#  12]
          +0.002*[#  13]
    |psi|^2 = 0.880
==== e(   5) =    11.24264 eV ==== 
     psi = 0.476*[#  10]+0.141*[#  11]+0.141*[#  12]+0.141*[#  13]+0.023*[#   6]
          +0.023*[#   7]+0.023*[#   9]+0.023*[#   1]+0.002*[#   5]+0.002*[#   8]
          +0.001*[#   2]+0.001*[#   3]+0.001*[#   4]
    |psi|^2 = 0.999
==== e(   6) =    14.99175 eV ==== 
     psi = 0.301*[#   6]+0.301*[#   7]+0.301*[#   9]+0.073*[#  11]+0.073*[#  12]
          +0.073*[#  13]+0.002*[#   1]+0.002*[#  10]
    |psi|^2 = 1.127
==== e(   7) =    15.59455 eV ==== 
     psi = 0.213*[#   6]+0.213*[#   7]+0.213*[#   9]+0.174*[#   5]+0.174*[#   8]
          +0.009*[#  11]+0.009*[#  12]+0.009*[#  13]
    |psi|^2 = 1.016
==== e(   8) =    15.66827 eV ==== 
     psi = 0.232*[#   6]+0.232*[#   7]+0.232*[#   9]+0.150*[#   5]+0.150*[#   8]
          +0.009*[#  11]+0.009*[#  12]+0.009*[#  13]
    |psi|^2 = 1.023
==== e(   9) =    16.47644 eV ==== 
     psi = 0.339*[#   5]+0.339*[#   8]+0.106*[#   6]+0.106*[#   7]+0.106*[#   9]
          +0.001*[#  11]+0.001*[#  12]+0.001*[#  13]
    |psi|^2 = 0.999
==== e(  10) =    16.84415 eV ==== 
     psi = 0.333*[#   5]+0.333*[#   8]+0.107*[#   6]+0.107*[#   7]+0.107*[#   9]
          +0.004*[#  10]+0.003*[#  11]+0.003*[#  12]+0.003*[#  13]
    |psi|^2 = 0.999

 k =   0.2250000000 -0.1250000000  0.2750000000
==== e(   1) =   -85.88628 eV ==== 
     psi = 0.941*[#   1]+0.020*[#  11]+0.020*[#  12]+0.020*[#  13]
    |psi|^2 = 1.000
==== e(   2) =   -46.23865 eV ==== 
     psi = 0.179*[#   2]+0.179*[#   3]+0.179*[#   4]+0.007*[#  11]+0.007*[#  12]
          +0.007*[#  13]+0.004*[#  10]
    |psi|^2 = 0.561
==== e(   3) =   -46.17587 eV ==== 
     psi = 0.459*[#   2]+0.459*[#   3]+0.459*[#   4]+0.002*[#  11]+0.002*[#  12]
          +0.002*[#  13]
    |psi|^2 = 1.385
==== e(   4) =   -46.16613 eV ==== 
     psi = 0.298*[#   2]+0.298*[#   3]+0.298*[#   4]+0.002*[#  11]+0.002*[#  12]
          +0.002*[#  13]
    |psi|^2 = 0.900
==== e(   5) =    10.49328 eV ==== 
     psi = 0.554*[#  10]+0.130*[#  11]+0.130*[#  12]+0.130*[#  13]+0.028*[#   1]
          +0.008*[#   6]+0.008*[#   7]+0.008*[#   9]
    |psi|^2 = 1.000
==== e(   6) =    15.02520 eV ==== 
     psi = 0.319*[#   6]+0.319*[#   7]+0.319*[#   9]+0.057*[#  11]+0.057*[#  12]
          +0.057*[#  13]
    |psi|^2 = 1.129
==== e(   7) =    15.62357 eV ==== 
     psi = 0.261*[#   6]+0.261*[#   7]+0.261*[#   9]+0.102*[#   5]+0.102*[#   8]
          +0.004*[#  11]+0.004*[#  12]+0.004*[#  13]
    |psi|^2 = 1.001
==== e(   8) =    15.66806 eV ==== 
     psi = 0.289*[#   6]+0.289*[#   7]+0.289*[#   9]+0.065*[#   5]+0.065*[#   8]
          +0.003*[#  11]+0.003*[#  12]+0.003*[#  13]
    |psi|^2 = 1.007
==== e(   9) =    16.36988 eV ==== 
     psi = 0.428*[#   5]+0.428*[#   8]+0.047*[#   6]+0.047*[#   7]+0.047*[#   9]
          
    |psi|^2 = 0.999
==== e(  10) =    16.69575 eV ==== 
     psi = 0.402*[#   5]+0.402*[#   8]+0.063*[#   6]+0.063*[#   7]+0.063*[#   9]
          +0.002*[#  10]+0.001*[#  11]+0.001*[#  12]+0.001*[#  13]
    |psi|^2 = 0.999

 k =   0.1750000000 -0.0750000000  0.2250000000
==== e(   1) =   -85.89094 eV ==== 
     psi = 0.941*[#   1]+0.019*[#  11]+0.019*[#  12]+0.019*[#  13]+0.002*[#  10]
          
    |psi|^2 = 1.000
==== e(   2) =   -46.20899 eV ==== 
     psi = 0.163*[#   2]+0.163*[#   3]+0.163*[#   4]+0.007*[#  11]+0.007*[#  12]
          +0.007*[#  13]+0.004*[#  10]
    |psi|^2 = 0.513
==== e(   3) =   -46.17035 eV ==== 
     psi = 0.484*[#   2]+0.484*[#   3]+0.484*[#   4]+0.003*[#  11]+0.003*[#  12]
          +0.003*[#  13]
    |psi|^2 = 1.461
==== e(   4) =   -46.16215 eV ==== 
     psi = 0.309*[#   2]+0.309*[#   3]+0.309*[#   4]+0.002*[#  11]+0.002*[#  12]
          +0.002*[#  13]
    |psi|^2 = 0.935
==== e(   5) =     9.84338 eV ==== 
     psi = 0.649*[#  10]+0.104*[#  11]+0.104*[#  12]+0.104*[#  13]+0.029*[#   1]
          +0.002*[#   6]+0.002*[#   7]+0.002*[#   9]
    |psi|^2 = 1.000
==== e(   6) =    15.11887 eV ==== 
     psi = 0.327*[#   6]+0.327*[#   7]+0.327*[#   9]+0.041*[#  11]+0.041*[#  12]
          +0.041*[#  13]
    |psi|^2 = 1.105
==== e(   7) =    15.59773 eV ==== 
     psi = 0.303*[#   6]+0.303*[#   7]+0.303*[#   9]+0.041*[#   5]+0.041*[#   8]
          +0.002*[#  11]+0.002*[#  12]+0.002*[#  13]
    |psi|^2 = 0.996
==== e(   8) =    15.60546 eV ==== 
     psi = 0.322*[#   6]+0.322*[#   7]+0.322*[#   9]+0.015*[#   5]+0.015*[#   8]
          +0.001*[#  11]+0.001*[#  12]+0.001*[#  13]
    |psi|^2 = 1.000
==== e(   9) =    16.35954 eV ==== 
     psi = 0.484*[#   5]+0.484*[#   8]+0.010*[#   6]+0.010*[#   7]+0.010*[#   9]
          
    |psi|^2 = 0.999
==== e(  10) =    16.60850 eV ==== 
     psi = 0.459*[#   5]+0.459*[#   8]+0.026*[#   6]+0.026*[#   7]+0.026*[#   9]
          
    |psi|^2 = 0.999

 k =   0.1250000000 -0.0250000000  0.1750000000
==== e(   1) =   -85.89473 eV ==== 
     psi = 0.949*[#   1]+0.015*[#  11]+0.015*[#  12]+0.015*[#  13]+0.006*[#  10]
          
    |psi|^2 = 1.000
==== e(   2) =   -46.18515 eV ==== 
     psi = 0.140*[#   2]+0.140*[#   3]+0.140*[#   4]+0.005*[#  11]+0.005*[#  12]
          +0.005*[#  13]+0.003*[#  10]
    |psi|^2 = 0.439
==== e(   3) =   -46.16508 eV ==== 
     psi = 0.518*[#   2]+0.518*[#   3]+0.518*[#   4]+0.004*[#  11]+0.004*[#  12]
          +0.004*[#  13]
    |psi|^2 = 1.565
==== e(   4) =   -46.15932 eV ==== 
     psi = 0.325*[#   2]+0.325*[#   3]+0.325*[#   4]+0.003*[#  11]+0.003*[#  12]
          +0.003*[#  13]
    |psi|^2 = 0.984
==== e(   5) =     9.34489 eV ==== 
     psi = 0.757*[#  10]+0.071*[#  11]+0.071*[#  12]+0.071*[#  13]+0.028*[#   1]
          
    |psi|^2 = 1.000
==== e(   6) =    15.22266 eV ==== 
     psi = 0.330*[#   6]+0.330*[#   7]+0.330*[#   9]+0.025*[#  11]+0.025*[#  12]
          +0.025*[#  13]
    |psi|^2 = 1.067
==== e(   7) =    15.51916 eV ==== 
     psi = 0.332*[#   6]+0.332*[#   7]+0.332*[#   9]
    |psi|^2 = 0.998
==== e(   8) =    15.53366 eV ==== 
     psi = 0.323*[#   6]+0.323*[#   7]+0.323*[#   9]+0.012*[#   5]+0.012*[#   8]
          +0.001*[#  11]+0.001*[#  12]+0.001*[#  13]
    |psi|^2 = 0.996
==== e(   9) =    16.40797 eV ==== 
     psi = 0.498*[#   5]+0.498*[#   8]+0.001*[#   6]+0.001*[#   7]+0.001*[#   9]
          
    |psi|^2 = 0.999
==== e(  10) =    16.56956 eV ==== 
     psi = 0.489*[#   5]+0.489*[#   8]+0.007*[#   6]+0.007*[#   7]+0.007*[#   9]
          
    |psi|^2 = 0.999

 k =   0.0750000000  0.0250000000  0.1250000000
==== e(   1) =   -85.89728 eV ==== 
     psi = 0.960*[#   1]+0.012*[#  10]+0.009*[#  11]+0.009*[#  12]+0.009*[#  13]
          
    |psi|^2 = 1.000
==== e(   2) =   -46.17000 eV ==== 
     psi = 0.130*[#   2]+0.130*[#   3]+0.130*[#   4]+0.003*[#  11]+0.003*[#  12]
          +0.003*[#  13]+0.002*[#  10]
    |psi|^2 = 0.401
==== e(   3) =   -46.16015 eV ==== 
     psi = 0.526*[#   2]+0.526*[#   3]+0.526*[#   4]+0.005*[#  11]+0.005*[#  12]
          +0.005*[#  13]
    |psi|^2 = 1.591
==== e(   4) =   -46.15790 eV ==== 
     psi = 0.318*[#   2]+0.318*[#   3]+0.318*[#   4]+0.003*[#  11]+0.003*[#  12]
          +0.003*[#  13]
    |psi|^2 = 0.963
==== e(   5) =     9.02411 eV ==== 
     psi = 0.856*[#  10]+0.039*[#  11]+0.039*[#  12]+0.039*[#  13]+0.027*[#   1]
          
    |psi|^2 = 1.000
==== e(   6) =    15.30646 eV ==== 
     psi = 0.332*[#   6]+0.332*[#   7]+0.332*[#   9]+0.011*[#  11]+0.011*[#  12]
          +0.011*[#  13]
    |psi|^2 = 1.027
==== e(   7) =    15.45407 eV ==== 
     psi = 0.332*[#   6]+0.332*[#   7]+0.332*[#   9]
    |psi|^2 = 0.998
==== e(   8) =    15.46404 eV ==== 
     psi = 0.331*[#   6]+0.331*[#   7]+0.331*[#   9]+0.002*[#   5]+0.002*[#   8]
          
    |psi|^2 = 0.997
==== e(   9) =    16.46889 eV ==== 
     psi = 0.499*[#   5]+0.499*[#   8]
    |psi|^2 = 0.999
==== e(  10) =    16.54917 eV ==== 
     psi = 0.498*[#   5]+0.498*[#   8]+0.001*[#   6]+0.001*[#   7]+0.001*[#   9]
          
    |psi|^2 = 1.000

 k =  -0.0250000000  0.2250000000  0.0250000000
==== e(   1) =   -85.89419 eV ==== 
     psi = 0.946*[#   1]+0.016*[#  11]+0.016*[#  12]+0.016*[#  13]+0.005*[#  10]
          
    |psi|^2 = 1.000
==== e(   2) =   -46.18283 eV ==== 
     psi = 0.319*[#   2]+0.319*[#   3]+0.319*[#   4]+0.004*[#  10]+0.001*[#  11]
          +0.001*[#  12]+0.001*[#  13]
    |psi|^2 = 0.965
==== e(   3) =   -46.16586 eV ==== 
     psi = 0.177*[#   2]+0.177*[#   3]+0.177*[#   4]+0.002*[#  11]+0.002*[#  12]
          +0.002*[#  13]
    |psi|^2 = 0.535
==== e(   4) =   -46.16539 eV ==== 
     psi = 0.189*[#   2]+0.189*[#   3]+0.189*[#   4]+0.002*[#  11]+0.002*[#  12]
          +0.002*[#  13]
    |psi|^2 = 0.571
==== e(   5) =     9.40907 eV ==== 
     psi = 0.737*[#  10]+0.077*[#  11]+0.077*[#  12]+0.077*[#  13]+0.029*[#   1]
          
    |psi|^2 = 1.000
==== e(   6) =    15.16049 eV ==== 
     psi = 0.332*[#   6]+0.332*[#   7]+0.332*[#   9]
    |psi|^2 = 0.998
==== e(   7) =    15.57371 eV ==== 
     psi = 0.330*[#   6]+0.330*[#   7]+0.330*[#   9]
    |psi|^2 = 0.996
==== e(   8) =    15.57446 eV ==== 
     psi = 0.330*[#   6]+0.330*[#   7]+0.330*[#   9]
    |psi|^2 = 0.996
==== e(   9) =    16.33081 eV ==== 
     psi = 0.497*[#   5]+0.497*[#   8]+0.001*[#  10]
    |psi|^2 = 0.999
==== e(  10) =    16.61628 eV ==== 
     psi = 0.499*[#   5]+0.499*[#   8]
    |psi|^2 = 1.000

 k =  -0.0750000000  0.2750000000 -0.0250000000
==== e(   1) =   -85.89130 eV ==== 
     psi = 0.939*[#   1]+0.020*[#  11]+0.020*[#  12]+0.020*[#  13]+0.002*[#  10]
          
    |psi|^2 = 1.000
==== e(   2) =   -46.19905 eV ==== 
     psi = 0.325*[#   2]+0.325*[#   3]+0.325*[#   4]+0.004*[#  10]+0.002*[#  11]
          +0.002*[#  12]+0.002*[#  13]
    |psi|^2 = 0.984
==== e(   3) =   -46.17133 eV ==== 
     psi = 0.018*[#   2]+0.018*[#   3]+0.018*[#   4]
    |psi|^2 = 0.056
==== e(   4) =   -46.16808 eV ==== 
     psi = 0.375*[#   2]+0.375*[#   3]+0.375*[#   4]+0.003*[#  11]+0.003*[#  12]
          +0.003*[#  13]
    |psi|^2 = 1.135
==== e(   5) =     9.78427 eV ==== 
     psi = 0.653*[#  10]+0.103*[#  11]+0.103*[#  12]+0.103*[#  13]+0.030*[#   1]
          +0.002*[#   5]+0.002*[#   8]
    |psi|^2 = 1.000
==== e(   6) =    15.05514 eV ==== 
     psi = 0.331*[#   6]+0.331*[#   7]+0.331*[#   9]+0.007*[#  11]+0.007*[#  12]
          +0.007*[#  13]
    |psi|^2 = 1.013
==== e(   7) =    15.65458 eV ==== 
     psi = 0.319*[#   6]+0.319*[#   7]+0.319*[#   9]+0.017*[#   5]+0.017*[#   8]
          +0.003*[#  11]+0.003*[#  12]+0.003*[#  13]
    |psi|^2 = 1.001
==== e(   8) =    15.66272 eV ==== 
     psi = 0.329*[#   6]+0.329*[#   7]+0.329*[#   9]+0.002*[#   5]+0.002*[#   8]
          
    |psi|^2 = 0.993
==== e(   9) =    16.25763 eV ==== 
     psi = 0.486*[#   5]+0.486*[#   8]+0.007*[#   6]+0.007*[#   7]+0.007*[#   9]
          +0.003*[#  10]
    |psi|^2 = 0.998
==== e(  10) =    16.65333 eV ==== 
     psi = 0.492*[#   5]+0.492*[#   8]+0.005*[#   6]+0.005*[#   7]+0.005*[#   9]
          
    |psi|^2 = 1.000

 k =  -0.1250000000  0.3250000000 -0.0750000000
==== e(   1) =   -85.88732 eV ==== 
     psi = 0.936*[#   1]+0.021*[#  11]+0.021*[#  12]+0.021*[#  13]
    |psi|^2 = 1.000
==== e(   2) =   -46.22354 eV ==== 
     psi = 0.301*[#   2]+0.301*[#   3]+0.301*[#   4]+0.004*[#  10]+0.002*[#  11]
          +0.002*[#  12]+0.002*[#  13]
    |psi|^2 = 0.915
==== e(   3) =   -46.17703 eV ==== 
     psi = 0.073*[#   2]+0.073*[#   3]+0.073*[#   4]
    |psi|^2 = 0.220
==== e(   4) =   -46.17133 eV ==== 
     psi = 0.388*[#   2]+0.388*[#   3]+0.388*[#   4]+0.003*[#  11]+0.003*[#  12]
          +0.003*[#  13]
    |psi|^2 = 1.172
==== e(   5) =    10.32611 eV ==== 
     psi = 0.565*[#  10]+0.129*[#  11]+0.129*[#  12]+0.129*[#  13]+0.029*[#   1]
          +0.004*[#   5]+0.004*[#   8]+0.003*[#   6]+0.003*[#   7]+0.003*[#   9]
          
    |psi|^2 = 1.000
==== e(   6) =    14.94334 eV ==== 
     psi = 0.327*[#   6]+0.327*[#   7]+0.327*[#   9]+0.016*[#  11]+0.016*[#  12]
          +0.016*[#  13]
    |psi|^2 = 1.032
==== e(   7) =    15.69427 eV ==== 
     psi = 0.270*[#   6]+0.270*[#   7]+0.270*[#   9]+0.090*[#   5]+0.090*[#   8]
          +0.005*[#  11]+0.005*[#  12]+0.005*[#  13]
    |psi|^2 = 1.006
==== e(   8) =    15.74849 eV ==== 
     psi = 0.312*[#   6]+0.312*[#   7]+0.312*[#   9]+0.028*[#   5]+0.028*[#   8]
          +0.002*[#  11]+0.002*[#  12]+0.002*[#  13]
    |psi|^2 = 0.996
==== e(   9) =    16.25563 eV ==== 
     psi = 0.415*[#   5]+0.415*[#   8]+0.052*[#   6]+0.052*[#   7]+0.052*[#   9]
          +0.005*[#  10]+0.003*[#  11]+0.003*[#  12]+0.003*[#  13]
    |psi|^2 = 0.998
==== e(  10) =    16.70929 eV ==== 
     psi = 0.461*[#   5]+0.461*[#   8]+0.026*[#   6]+0.026*[#   7]+0.026*[#   9]
          
    |psi|^2 = 1.000

 k =  -0.1750000000  0.3750000000 -0.1250000000
==== e(   1) =   -85.88264 eV ==== 
     psi = 0.939*[#   1]+0.020*[#  11]+0.020*[#  12]+0.020*[#  13]
    |psi|^2 = 1.000
==== e(   2) =   -46.25261 eV ==== 
     psi = 0.281*[#   2]+0.281*[#   3]+0.281*[#   4]+0.004*[#  10]+0.003*[#  11]
          +0.003*[#  12]+0.003*[#  13]
    |psi|^2 = 0.856
==== e(   3) =   -46.18274 eV ==== 
     psi = 0.110*[#   2]+0.110*[#   3]+0.110*[#   4]
    |psi|^2 = 0.330
==== e(   4) =   -46.17572 eV ==== 
     psi = 0.401*[#   2]+0.401*[#   3]+0.401*[#   4]+0.003*[#  11]+0.003*[#  12]
          +0.003*[#  13]
    |psi|^2 = 1.211
==== e(   5) =    11.00134 eV ==== 
     psi = 0.486*[#  10]+0.147*[#  11]+0.147*[#  12]+0.147*[#  13]+0.026*[#   1]
          +0.010*[#   6]+0.010*[#   7]+0.010*[#   9]+0.007*[#   5]+0.007*[#   8]
          +0.001*[#   2]+0.001*[#   3]+0.001*[#   4]
    |psi|^2 = 1.000
==== e(   6) =    14.85241 eV ==== 
     psi = 0.319*[#   6]+0.319*[#   7]+0.319*[#   9]+0.028*[#  11]+0.028*[#  12]
          +0.028*[#  13]+0.001*[#   5]+0.001*[#   8]
    |psi|^2 = 1.044
==== e(   7) =    15.64227 eV ==== 
     psi = 0.200*[#   5]+0.200*[#   8]+0.197*[#   6]+0.197*[#   7]+0.197*[#   9]
          +0.008*[#  11]+0.008*[#  12]+0.008*[#  13]
    |psi|^2 = 1.015
==== e(   8) =    15.79122 eV ==== 
     psi = 0.272*[#   6]+0.272*[#   7]+0.272*[#   9]+0.088*[#   5]+0.088*[#   8]
          +0.005*[#  11]+0.005*[#  12]+0.005*[#  13]
    |psi|^2 = 1.005
==== e(   9) =    16.39666 eV ==== 
     psi = 0.301*[#   5]+0.301*[#   8]+0.122*[#   6]+0.122*[#   7]+0.122*[#   9]
          +0.007*[#  10]+0.007*[#  11]+0.007*[#  12]+0.007*[#  13]
    |psi|^2 = 0.998
==== e(  10) =    16.80862 eV ==== 
     psi = 0.400*[#   5]+0.400*[#   8]+0.065*[#   6]+0.065*[#   7]+0.065*[#   9]
          +0.001*[#  10]
    |psi|^2 = 1.000

 k =  -0.2250000000  0.4250000000 -0.1750000000
==== e(   1) =   -85.87773 eV ==== 
     psi = 0.948*[#   1]+0.017*[#  11]+0.017*[#  12]+0.017*[#  13]
    |psi|^2 = 1.000
==== e(   2) =   -46.28305 eV ==== 
     psi = 0.266*[#   2]+0.266*[#   3]+0.266*[#   4]+0.003*[#  11]+0.003*[#  12]
          +0.003*[#  13]+0.003*[#  10]
    |psi|^2 = 0.810
==== e(   3) =   -46.18812 eV ==== 
     psi = 0.133*[#   2]+0.133*[#   3]+0.133*[#   4]
    |psi|^2 = 0.402
==== e(   4) =   -46.18096 eV ==== 
     psi = 0.414*[#   2]+0.414*[#   3]+0.414*[#   4]+0.003*[#  11]+0.003*[#  12]
          +0.003*[#  13]
    |psi|^2 = 1.252
==== e(   5) =    11.74493 eV ==== 
     psi = 0.416*[#  10]+0.150*[#  11]+0.150*[#  12]+0.150*[#  13]+0.030*[#   6]
          +0.030*[#   7]+0.030*[#   9]+0.020*[#   1]+0.011*[#   5]+0.011*[#   8]
          +0.001*[#   2]+0.001*[#   3]+0.001*[#   4]
    |psi|^2 = 0.999
==== e(   6) =    14.82823 eV ==== 
     psi = 0.298*[#   6]+0.298*[#   7]+0.298*[#   9]+0.041*[#  11]+0.041*[#  12]
          +0.041*[#  13]+0.007*[#   5]+0.007*[#   8]+0.002*[#  10]+0.002*[#   1]
          
    |psi|^2 = 1.036
==== e(   7) =    15.53259 eV ==== 
     psi = 0.260*[#   5]+0.260*[#   8]+0.157*[#   6]+0.157*[#   7]+0.157*[#   9]
          +0.014*[#  11]+0.014*[#  12]+0.014*[#  13]+0.002*[#  10]
    |psi|^2 = 1.033
==== e(   8) =    15.78050 eV ==== 
     psi = 0.226*[#   6]+0.226*[#   7]+0.226*[#   9]+0.156*[#   5]+0.156*[#   8]
          +0.011*[#  11]+0.011*[#  12]+0.011*[#  13]
    |psi|^2 = 1.024
==== e(   9) =    16.65692 eV ==== 
     psi = 0.241*[#   5]+0.241*[#   8]+0.156*[#   6]+0.156*[#   7]+0.156*[#   9]
          +0.013*[#  11]+0.013*[#  12]+0.013*[#  13]+0.011*[#  10]+0.001*[#   1]
          
    |psi|^2 = 0.999
==== e(  10) =    16.95984 eV ==== 
     psi = 0.322*[#   5]+0.322*[#   8]+0.114*[#   6]+0.114*[#   7]+0.114*[#   9]
          +0.004*[#  10]+0.004*[#  11]+0.004*[#  12]+0.004*[#  13]
    |psi|^2 = 1.000

 k =  -0.2750000000  0.4750000000 -0.2250000000
==== e(   1) =   -85.87306 eV ==== 
     psi = 0.960*[#   1]+0.013*[#  11]+0.013*[#  12]+0.013*[#  13]+0.001*[#  10]
          
    |psi|^2 = 1.000
==== e(   2) =   -46.31180 eV ==== 
     psi = 0.254*[#   2]+0.254*[#   3]+0.254*[#   4]+0.003*[#  11]+0.003*[#  12]
          +0.003*[#  13]+0.002*[#  10]
    |psi|^2 = 0.772
==== e(   3) =   -46.19292 eV ==== 
     psi = 0.156*[#   2]+0.156*[#   3]+0.156*[#   4]
    |psi|^2 = 0.470
==== e(   4) =   -46.18633 eV ==== 
     psi = 0.422*[#   2]+0.422*[#   3]+0.422*[#   4]+0.003*[#  11]+0.003*[#  12]
          +0.003*[#  13]
    |psi|^2 = 1.273
==== e(   5) =    12.43466 eV ==== 
     psi = 0.346*[#  10]+0.124*[#  11]+0.124*[#  12]+0.124*[#  13]+0.078*[#   6]
          +0.078*[#   7]+0.078*[#   9]+0.014*[#   5]+0.014*[#   8]+0.012*[#   1]
          +0.001*[#   2]+0.001*[#   3]+0.001*[#   4]
    |psi|^2 = 0.998
==== e(   6) =    14.94110 eV ==== 
[...]
    |psi|^2 = 0.924
==== e(   7) =    16.05061 eV ==== 
     psi = 0.261*[#   6]+0.261*[#   7]+0.261*[#   9]+0.085*[#  11]+0.085*[#  12]
          +0.085*[#  13]+0.005*[#   5]+0.005*[#   8]
    |psi|^2 = 1.050
==== e(   8) =    16.62170 eV ==== 
     psi = 0.356*[#   5]+0.356*[#   8]+0.092*[#   6]+0.092*[#   7]+0.092*[#   9]
          +0.033*[#  11]+0.033*[#  12]+0.033*[#  13]
    |psi|^2 = 1.086
==== e(   9) =    17.96389 eV ==== 
     psi = 0.241*[#   6]+0.241*[#   7]+0.241*[#   9]+0.139*[#   5]+0.139*[#   8]
          
    |psi|^2 = 1.000
==== e(  10) =    21.10642 eV ==== 
     psi = 0.202*[#  11]+0.202*[#  12]+0.202*[#  13]+0.092*[#   5]+0.092*[#   8]
          +0.066*[#   6]+0.066*[#   7]+0.066*[#   9]+0.007*[#  10]+0.001*[#   2]
          +0.001*[#   3]+0.001*[#   4]
    |psi|^2 = 0.999

 k =  -0.4250000000  0.4250000000  0.4250000000
==== e(   1) =   -84.91485 eV ==== 
     psi = 0.991*[#   1]+0.003*[#  11]+0.003*[#  12]+0.003*[#  13]
    |psi|^2 = 1.000
==== e(   2) =   -45.44515 eV ==== 
     psi = 0.220*[#   2]+0.220*[#   3]+0.220*[#   4]+0.003*[#  11]+0.003*[#  12]
          +0.003*[#  13]
    |psi|^2 = 0.669
==== e(   3) =   -45.26237 eV ==== 
     psi = 0.299*[#   2]+0.299*[#   3]+0.299*[#   4]+0.003*[#  11]+0.003*[#  12]
          +0.003*[#  13]
    |psi|^2 = 0.904
==== e(   4) =   -45.26237 eV ==== 
     psi = 0.362*[#   2]+0.362*[#   3]+0.362*[#   4]+0.003*[#  11]+0.003*[#  12]
          +0.003*[#  13]
    |psi|^2 = 1.095
==== e(   5) =    13.22615 eV ==== 
     psi = 0.320*[#  10]+0.195*[#   6]+0.195*[#   7]+0.195*[#   9]+0.029*[#  11]
          +0.029*[#  12]+0.029*[#  13]+0.002*[#   1]
    |psi|^2 = 0.995
==== e(   6) =    16.12303 eV ==== 
     psi = 0.299*[#   5]+0.299*[#   8]+0.132*[#   6]+0.132*[#   7]+0.132*[#   9]
          +0.010*[#  11]+0.010*[#  12]+0.010*[#  13]
    |psi|^2 = 1.024
==== e(   7) =    16.12303 eV ==== 
     psi = 0.299*[#   5]+0.299*[#   8]+0.132*[#   6]+0.132*[#   7]+0.132*[#   9]
          
    |psi|^2 = 0.995
==== e(   8) =    16.80470 eV ==== 
     psi = 0.169*[#  11]+0.169*[#  12]+0.169*[#  13]+0.068*[#   6]+0.068*[#   7]
          +0.068*[#   9]+0.021*[#  10]+0.004*[#   1]+0.002*[#   2]+0.002*[#   3]
          +0.002*[#   4]
    |psi|^2 = 0.742
==== e(   9) =    17.97159 eV ==== 
     psi = 0.200*[#   6]+0.200*[#   7]+0.200*[#   9]+0.200*[#   5]+0.200*[#   8]
          
    |psi|^2 = 1.000
==== e(  10) =    17.97159 eV ==== 
     psi = 0.200*[#   6]+0.200*[#   7]+0.200*[#   9]+0.200*[#   5]+0.200*[#   8]
          
    |psi|^2 = 1.000

 k =  -0.4750000000  0.4750000000  0.3750000000
==== e(   1) =   -84.91373 eV ==== 
     psi = 0.992*[#   1]+0.002*[#  11]+0.002*[#  12]+0.002*[#  13]
    |psi|^2 = 1.000
==== e(   2) =   -45.44824 eV ==== 
     psi = 0.225*[#   2]+0.225*[#   3]+0.225*[#   4]+0.004*[#  11]+0.004*[#  12]
          +0.004*[#  13]
    |psi|^2 = 0.686
==== e(   3) =   -45.26801 eV ==== 
     psi = 0.210*[#   2]+0.210*[#   3]+0.210*[#   4]+0.002*[#  11]+0.002*[#  12]
          +0.002*[#  13]
    |psi|^2 = 0.635
==== e(   4) =   -45.26294 eV ==== 
     psi = 0.443*[#   2]+0.443*[#   3]+0.443*[#   4]+0.004*[#  11]+0.004*[#  12]
          +0.004*[#  13]
    |psi|^2 = 1.341
==== e(   5) =    13.36309 eV ==== 
     psi = 0.294*[#  10]+0.211*[#   6]+0.211*[#   7]+0.211*[#   9]+0.022*[#  11]
          +0.022*[#  12]+0.022*[#  13]+0.001*[#   1]
    |psi|^2 = 0.995
==== e(   6) =    16.05922 eV ==== 
     psi = 0.314*[#   5]+0.314*[#   8]+0.116*[#   6]+0.116*[#   7]+0.116*[#   9]
          +0.017*[#  11]+0.017*[#  12]+0.017*[#  13]
    |psi|^2 = 1.025
==== e(   7) =    16.13963 eV ==== 
     psi = 0.309*[#   5]+0.309*[#   8]+0.125*[#   6]+0.125*[#   7]+0.125*[#   9]
          
    |psi|^2 = 0.997
==== e(   8) =    16.78472 eV ==== 
     psi = 0.146*[#  11]+0.146*[#  12]+0.146*[#  13]+0.101*[#   6]+0.101*[#   7]
          +0.101*[#   9]+0.015*[#   5]+0.015*[#   8]+0.011*[#  10]+0.002*[#   1]
          +0.002*[#   2]+0.002*[#   3]+0.002*[#   4]
    |psi|^2 = 0.789
==== e(   9) =    17.95675 eV ==== 
     psi = 0.207*[#   6]+0.207*[#   7]+0.207*[#   9]+0.189*[#   5]+0.189*[#   8]
          
    |psi|^2 = 1.000
==== e(  10) =    18.36310 eV ==== 
     psi = 0.169*[#   5]+0.169*[#   8]+0.159*[#   6]+0.159*[#   7]+0.159*[#   9]
          +0.058*[#  11]+0.058*[#  12]+0.058*[#  13]+0.009*[#  10]
    |psi|^2 = 1.000

 k =   0.4750000000 -0.4750000000  1.3250000000
==== e(   1) =   -84.91211 eV ==== 
     psi = 0.991*[#   1]+0.002*[#  11]+0.002*[#  12]+0.002*[#  13]
    |psi|^2 = 1.000
==== e(   2) =   -45.44660 eV ==== 
     psi = 0.226*[#   2]+0.226*[#   3]+0.226*[#   4]+0.003*[#  11]+0.003*[#  12]
          +0.003*[#  13]
    |psi|^2 = 0.687
==== e(   3) =   -45.28010 eV ==== 
     psi = 0.209*[#   2]+0.209*[#   3]+0.209*[#   4]+0.001*[#  11]+0.001*[#  12]
          +0.001*[#  13]
    |psi|^2 = 0.632
==== e(   4) =   -45.26595 eV ==== 
     psi = 0.444*[#   2]+0.444*[#   3]+0.444*[#   4]+0.004*[#  11]+0.004*[#  12]
          +0.004*[#  13]
    |psi|^2 = 1.342
==== e(   5) =    13.59323 eV ==== 
     psi = 0.247*[#  10]+0.224*[#   6]+0.224*[#   7]+0.224*[#   9]+0.025*[#  11]
          +0.025*[#  12]+0.025*[#  13]
    |psi|^2 = 0.995
==== e(   6) =    15.88263 eV ==== 
     psi = 0.352*[#   5]+0.352*[#   8]+0.070*[#   6]+0.070*[#   7]+0.070*[#   9]
          +0.034*[#  11]+0.034*[#  12]+0.034*[#  13]
    |psi|^2 = 1.016
==== e(   7) =    16.23368 eV ==== 
     psi = 0.321*[#   5]+0.321*[#   8]+0.117*[#   6]+0.117*[#   7]+0.117*[#   9]
          +0.004*[#  11]+0.004*[#  12]+0.004*[#  13]
    |psi|^2 = 1.006
==== e(   8) =    16.52138 eV ==== 
     psi = 0.173*[#   6]+0.173*[#   7]+0.173*[#   9]+0.108*[#  11]+0.108*[#  12]
          +0.108*[#  13]+0.010*[#   5]+0.010*[#   8]+0.004*[#  10]+0.001*[#   2]
          +0.001*[#   3]+0.001*[#   4]
    |psi|^2 = 0.871
==== e(   9) =    17.94920 eV ==== 
     psi = 0.216*[#   6]+0.216*[#   7]+0.216*[#   9]+0.176*[#   5]+0.176*[#   8]
          
    |psi|^2 = 1.000
==== e(  10) =    19.13873 eV ==== 
     psi = 0.133*[#   5]+0.133*[#   8]+0.124*[#  11]+0.124*[#  12]+0.124*[#  13]
          +0.113*[#   6]+0.113*[#   7]+0.113*[#   9]+0.017*[#  10]+0.001*[#   2]
          +0.001*[#   3]+0.001*[#   4]
    |psi|^2 = 1.000

 k =   0.4250000000 -0.4250000000  1.2750000000
==== e(   1) =   -84.91014 eV ==== 
     psi = 0.989*[#   1]+0.003*[#  11]+0.003*[#  12]+0.003*[#  13]+0.002*[#  10]
          
    |psi|^2 = 1.000
==== e(   2) =   -45.44038 eV ==== 
     psi = 0.221*[#   2]+0.221*[#   3]+0.221*[#   4]+0.003*[#  11]+0.003*[#  12]
          +0.003*[#  13]
    |psi|^2 = 0.671
==== e(   3) =   -45.29746 eV ==== 
     psi = 0.220*[#   2]+0.220*[#   3]+0.220*[#   4]+0.001*[#  11]+0.001*[#  12]
          +0.001*[#  13]
    |psi|^2 = 0.664
==== e(   4) =   -45.27111 eV ==== 
     psi = 0.442*[#   2]+0.442*[#   3]+0.442*[#   4]+0.003*[#  11]+0.003*[#  12]
          +0.003*[#  13]
    |psi|^2 = 1.334
==== e(   5) =    13.89424 eV ==== 
     psi = 0.235*[#   6]+0.235*[#   7]+0.235*[#   9]+0.193*[#  10]+0.032*[#  11]
          +0.032*[#  12]+0.032*[#  13]
    |psi|^2 = 0.996
==== e(   6) =    15.60208 eV ==== 
     psi = 0.382*[#   5]+0.382*[#   8]+0.056*[#  11]+0.056*[#  12]+0.056*[#  13]
          +0.023*[#   6]+0.023*[#   7]+0.023*[#   9]
    |psi|^2 = 1.003
==== e(   7) =    16.25400 eV ==== 
     psi = 0.233*[#   6]+0.233*[#   7]+0.233*[#   9]+0.063*[#  11]+0.063*[#  12]
          +0.063*[#  13]
    |psi|^2 = 0.891
==== e(   8) =    16.39831 eV ==== 
     psi = 0.336*[#   5]+0.336*[#   8]+0.106*[#   6]+0.106*[#   7]+0.106*[#   9]
          +0.025*[#  11]+0.025*[#  12]+0.025*[#  13]
    |psi|^2 = 1.065
==== e(   9) =    17.95103 eV ==== 
     psi = 0.227*[#   6]+0.227*[#   7]+0.227*[#   9]+0.159*[#   5]+0.159*[#   8]
          
    |psi|^2 = 1.000
==== e(  10) =    20.08194 eV ==== 
     psi = 0.168*[#  11]+0.168*[#  12]+0.168*[#  13]+0.110*[#   5]+0.110*[#   8]
          +0.084*[#   6]+0.084*[#   7]+0.084*[#   9]+0.017*[#  10]+0.001*[#   2]
          +0.001*[#   3]+0.001*[#   4]
    |psi|^2 = 0.999

 k =  -0.4250000000  0.5250000000  0.4250000000
==== e(   1) =   -84.91318 eV ==== 
     psi = 0.995*[#   1]+0.001*[#  11]+0.001*[#  12]+0.001*[#  13]
    |psi|^2 = 1.000
==== e(   2) =   -45.45184 eV ==== 
     psi = 0.222*[#   2]+0.222*[#   3]+0.222*[#   4]+0.003*[#  11]+0.003*[#  12]
          +0.003*[#  13]
    |psi|^2 = 0.674
==== e(   3) =   -45.26655 eV ==== 
     psi = 0.381*[#   2]+0.381*[#   3]+0.381*[#   4]+0.003*[#  11]+0.003*[#  12]
          +0.003*[#  13]
    |psi|^2 = 1.151
==== e(   4) =   -45.26545 eV ==== 
     psi = 0.273*[#   2]+0.273*[#   3]+0.273*[#   4]+0.002*[#  11]+0.002*[#  12]
          +0.002*[#  13]
    |psi|^2 = 0.826
==== e(   5) =    13.41385 eV ==== 
     psi = 0.285*[#  10]+0.223*[#   6]+0.223*[#   7]+0.223*[#   9]+0.013*[#  11]
          +0.013*[#  12]+0.013*[#  13]
    |psi|^2 = 0.995
==== e(   6) =    16.03560 eV ==== 
     psi = 0.324*[#   5]+0.324*[#   8]+0.109*[#   6]+0.109*[#   7]+0.109*[#   9]
          +0.004*[#  11]+0.004*[#  12]+0.004*[#  13]
    |psi|^2 = 0.989
==== e(   7) =    16.13870 eV ==== 
     psi = 0.303*[#   5]+0.303*[#   8]+0.129*[#   6]+0.129*[#   7]+0.129*[#   9]
          +0.003*[#  11]+0.003*[#  12]+0.003*[#  13]
    |psi|^2 = 1.002
==== e(   8) =    16.90705 eV ==== 
     psi = 0.145*[#  11]+0.145*[#  12]+0.145*[#  13]+0.101*[#   6]+0.101*[#   7]
          +0.101*[#   9]+0.021*[#   5]+0.021*[#   8]+0.007*[#  10]+0.002*[#   2]
          +0.002*[#   3]+0.002*[#   4]+0.001*[#   1]
    |psi|^2 = 0.792
==== e(   9) =    18.05758 eV ==== 
     psi = 0.203*[#   6]+0.203*[#   7]+0.203*[#   9]+0.195*[#   5]+0.195*[#   8]
          
    |psi|^2 = 1.000
==== e(  10) =    18.39102 eV ==== 
     psi = 0.152*[#   5]+0.152*[#   8]+0.146*[#   6]+0.146*[#   7]+0.146*[#   9]
          +0.082*[#  11]+0.082*[#  12]+0.082*[#  13]+0.006*[#  10]
    |psi|^2 = 1.000

 k =   0.5250000000 -0.4250000000  1.3750000000
==== e(   1) =   -84.91209 eV ==== 
     psi = 0.994*[#   1]+0.002*[#  11]+0.002*[#  12]+0.002*[#  13]
    |psi|^2 = 1.000
==== e(   2) =   -45.45073 eV ==== 
     psi = 0.223*[#   2]+0.223*[#   3]+0.223*[#   4]+0.003*[#  11]+0.003*[#  12]
          +0.003*[#  13]
    |psi|^2 = 0.675
==== e(   3) =   -45.27520 eV ==== 
     psi = 0.250*[#   2]+0.250*[#   3]+0.250*[#   4]+0.002*[#  11]+0.002*[#  12]
          +0.002*[#  13]
    |psi|^2 = 0.755
==== e(   4) =   -45.26695 eV ==== 
     psi = 0.404*[#   2]+0.404*[#   3]+0.404*[#   4]+0.003*[#  11]+0.003*[#  12]
          +0.003*[#  13]
    |psi|^2 = 1.221
==== e(   5) =    13.56493 eV ==== 
     psi = 0.253*[#  10]+0.232*[#   6]+0.232*[#   7]+0.232*[#   9]+0.015*[#  11]
          +0.015*[#  12]+0.015*[#  13]
    |psi|^2 = 0.995
==== e(   6) =    15.91608 eV ==== 
     psi = 0.349*[#   5]+0.349*[#   8]+0.079*[#   6]+0.079*[#   7]+0.079*[#   9]
          +0.016*[#  11]+0.016*[#  12]+0.016*[#  13]
    |psi|^2 = 0.984
==== e(   7) =    16.20074 eV ==== 
     psi = 0.313*[#   5]+0.313*[#   8]+0.122*[#   6]+0.122*[#   7]+0.122*[#   9]
          +0.004*[#  11]+0.004*[#  12]+0.004*[#  13]
    |psi|^2 = 1.006
==== e(   8) =    16.68114 eV ==== 
     psi = 0.156*[#   6]+0.156*[#   7]+0.156*[#   9]+0.119*[#  11]+0.119*[#  12]
          +0.119*[#  13]+0.017*[#   5]+0.017*[#   8]+0.002*[#  10]+0.001*[#   2]
          +0.001*[#   3]+0.001*[#   4]
    |psi|^2 = 0.865
==== e(   9) =    18.03266 eV ==== 
     psi = 0.210*[#   6]+0.210*[#   7]+0.210*[#   9]+0.184*[#   5]+0.184*[#   8]
          
    |psi|^2 = 1.000
==== e(  10) =    19.01354 eV ==== 
     psi = 0.136*[#  11]+0.136*[#  12]+0.136*[#  13]+0.130*[#   5]+0.130*[#   8]
          +0.107*[#   6]+0.107*[#   7]+0.107*[#   9]+0.006*[#  10]+0.001*[#   2]
          +0.001*[#   3]+0.001*[#   4]
    |psi|^2 = 1.000

 k =   0.4750000000 -0.3750000000  1.3250000000
==== e(   1) =   -84.91057 eV ==== 
     psi = 0.991*[#   1]+0.002*[#  11]+0.002*[#  12]+0.002*[#  13]+0.001*[#  10]
          
    |psi|^2 = 1.000
==== e(   2) =   -45.44502 eV ==== 
     psi = 0.217*[#   2]+0.217*[#   3]+0.217*[#   4]+0.002*[#  11]+0.002*[#  12]
          +0.002*[#  13]
    |psi|^2 = 0.659
==== e(   3) =   -45.28944 eV ==== 
     psi = 0.244*[#   2]+0.244*[#   3]+0.244*[#   4]+0.001*[#  11]+0.001*[#  12]
          +0.001*[#  13]
    |psi|^2 = 0.737
==== e(   4) =   -45.27097 eV ==== 
     psi = 0.418*[#   2]+0.418*[#   3]+0.418*[#   4]+0.003*[#  11]+0.003*[#  12]
          +0.003*[#  13]
    |psi|^2 = 1.263
==== e(   5) =    13.80276 eV ==== 
     psi = 0.238*[#   6]+0.238*[#   7]+0.238*[#   9]+0.208*[#  10]+0.024*[#  11]
          +0.024*[#  12]+0.024*[#  13]
    |psi|^2 = 0.996
==== e(   6) =    15.68500 eV ==== 
     psi = 0.379*[#   5]+0.379*[#   8]+0.038*[#  11]+0.038*[#  12]+0.038*[#  13]
          +0.034*[#   6]+0.034*[#   7]+0.034*[#   9]
    |psi|^2 = 0.974
==== e(   7) =    16.33790 eV ==== 
     psi = 0.325*[#   5]+0.325*[#   8]+0.113*[#   6]+0.113*[#   7]+0.113*[#   9]
          +0.008*[#  11]+0.008*[#  12]+0.008*[#  13]
    |psi|^2 = 1.015
==== e(   8) =    16.37658 eV ==== 
     psi = 0.217*[#   6]+0.217*[#   7]+0.217*[#   9]+0.095*[#  11]+0.095*[#  12]
          +0.095*[#  13]+0.003*[#   5]+0.003*[#   8]+0.001*[#   2]+0.001*[#   3]
          +0.001*[#   4]
    |psi|^2 = 0.943
==== e(   9) =    18.01359 eV ==== 
     psi = 0.220*[#   6]+0.220*[#   7]+0.220*[#   9]+0.170*[#   5]+0.170*[#   8]
          
    |psi|^2 = 1.000
==== e(  10) =    19.84392 eV ==== 
     psi = 0.174*[#  11]+0.174*[#  12]+0.174*[#  13]+0.114*[#   5]+0.114*[#   8]
          +0.081*[#   6]+0.081*[#   7]+0.081*[#   9]+0.002*[#  10]+0.002*[#   2]
          +0.002*[#   3]+0.002*[#   4]
    |psi|^2 = 0.999

 k =  -0.4250000000 -1.3750000000  0.4250000000
==== e(   1) =   -84.91155 eV ==== 
     psi = 0.993*[#   1]+0.002*[#  11]+0.002*[#  12]+0.002*[#  13]
    |psi|^2 = 1.000
==== e(   2) =   -45.45019 eV ==== 
     psi = 0.222*[#   2]+0.222*[#   3]+0.222*[#   4]+0.003*[#  11]+0.003*[#  12]
          +0.003*[#  13]
    |psi|^2 = 0.675
==== e(   3) =   -45.27863 eV ==== 
     psi = 0.381*[#   2]+0.381*[#   3]+0.381*[#   4]+0.002*[#  11]+0.002*[#  12]
          +0.002*[#  13]
    |psi|^2 = 1.151
==== e(   4) =   -45.26846 eV ==== 
     psi = 0.273*[#   2]+0.273*[#   3]+0.273*[#   4]+0.002*[#  11]+0.002*[#  12]
          +0.002*[#  13]
    |psi|^2 = 0.825
==== e(   5) =    13.63667 eV ==== 
     psi = 0.238*[#  10]+0.236*[#   6]+0.236*[#   7]+0.236*[#   9]+0.016*[#  11]
          +0.016*[#  12]+0.016*[#  13]
    |psi|^2 = 0.995
==== e(   6) =    15.85089 eV ==== 
     psi = 0.361*[#   5]+0.361*[#   8]+0.063*[#   6]+0.063*[#   7]+0.063*[#   9]
          +0.017*[#  11]+0.017*[#  12]+0.017*[#  13]
    |psi|^2 = 0.964
==== e(   7) =    16.23416 eV ==== 
     psi = 0.315*[#   5]+0.315*[#   8]+0.121*[#   6]+0.121*[#   7]+0.121*[#   9]
          +0.012*[#  11]+0.012*[#  12]+0.012*[#  13]
    |psi|^2 = 1.028
==== e(   8) =    16.60526 eV ==== 
     psi = 0.177*[#   6]+0.177*[#   7]+0.177*[#   9]+0.111*[#  11]+0.111*[#  12]
          +0.111*[#  13]+0.012*[#   5]+0.012*[#   8]+0.001*[#   2]+0.001*[#   3]
          +0.001*[#   4]
    |psi|^2 = 0.890
==== e(   9) =    18.04926 eV ==== 
     psi = 0.212*[#   6]+0.212*[#   7]+0.212*[#   9]+0.182*[#   5]+0.182*[#   8]
          
    |psi|^2 = 1.000
==== e(  10) =    19.28254 eV ==== 
     psi = 0.157*[#  11]+0.157*[#  12]+0.157*[#  13]+0.122*[#   5]+0.122*[#   8]
          +0.093*[#   6]+0.093*[#   7]+0.093*[#   9]+0.002*[#   2]+0.002*[#   3]
          +0.002*[#   4]
    |psi|^2 = 1.000

 k =  -0.4750000000  0.4750000000  0.4750000000
==== e(   1) =   -84.91318 eV ==== 
     psi = 0.998*[#   1]
    |psi|^2 = 1.000
==== e(   2) =   -45.45596 eV ==== 
     psi = 0.220*[#   2]+0.220*[#   3]+0.220*[#   4]+0.003*[#  11]+0.003*[#  12]
          +0.003*[#  13]
    |psi|^2 = 0.667
==== e(   3) =   -45.26394 eV ==== 
     psi = 0.323*[#   2]+0.323*[#   3]+0.323*[#   4]+0.003*[#  11]+0.003*[#  12]
          +0.003*[#  13]
    |psi|^2 = 0.978
==== e(   4) =   -45.26394 eV ==== 
     psi = 0.338*[#   2]+0.338*[#   3]+0.338*[#   4]+0.003*[#  11]+0.003*[#  12]
          +0.003*[#  13]
    |psi|^2 = 1.022
==== e(   5) =    13.38531 eV ==== 
     psi = 0.293*[#  10]+0.231*[#   6]+0.231*[#   7]+0.231*[#   9]+0.003*[#  11]
          +0.003*[#  12]+0.003*[#  13]
    |psi|^2 = 0.994
==== e(   6) =    16.08976 eV ==== 
     psi = 0.306*[#   5]+0.306*[#   8]+0.128*[#   6]+0.128*[#   7]+0.128*[#   9]
          +0.001*[#  11]+0.001*[#  12]+0.001*[#  13]
    |psi|^2 = 0.998
==== e(   7) =    16.08976 eV ==== 
     psi = 0.306*[#   5]+0.306*[#   8]+0.128*[#   6]+0.128*[#   7]+0.128*[#   9]
          
    |psi|^2 = 0.995
==== e(   8) =    17.34750 eV ==== 
     psi = 0.213*[#  11]+0.213*[#  12]+0.213*[#  13]+0.009*[#   6]+0.009*[#   7]
          +0.009*[#   9]+0.005*[#  10]+0.003*[#   2]+0.003*[#   3]+0.003*[#   4]
          
    |psi|^2 = 0.677
==== e(   9) =    18.04926 eV ==== 
     psi = 0.205*[#   6]+0.205*[#   7]+0.205*[#   9]+0.193*[#   5]+0.193*[#   8]
          
    |psi|^2 = 1.000
==== e(  10) =    18.04926 eV ==== 
     psi = 0.205*[#   6]+0.205*[#   7]+0.205*[#   9]+0.193*[#   5]+0.193*[#   8]
          
    |psi|^2 = 1.000

 k =   0.4750000000 -0.4750000000  1.4250000000
==== e(   1) =   -84.91262 eV ==== 
     psi = 0.997*[#   1]
    |psi|^2 = 1.000
==== e(   2) =   -45.45539 eV ==== 
     psi = 0.220*[#   2]+0.220*[#   3]+0.220*[#   4]+0.003*[#  11]+0.003*[#  12]
          +0.003*[#  13]
    |psi|^2 = 0.667
==== e(   3) =   -45.26811 eV ==== 
     psi = 0.220*[#   2]+0.220*[#   3]+0.220*[#   4]+0.002*[#  11]+0.002*[#  12]
          +0.002*[#  13]
    |psi|^2 = 0.666
==== e(   4) =   -45.26498 eV ==== 
     psi = 0.441*[#   2]+0.441*[#   3]+0.441*[#   4]+0.004*[#  11]+0.004*[#  12]
          +0.004*[#  13]
    |psi|^2 = 1.333
==== e(   5) =    13.46189 eV ==== 
     psi = 0.275*[#  10]+0.235*[#   6]+0.235*[#   7]+0.235*[#   9]+0.005*[#  11]
          +0.005*[#  12]+0.005*[#  13]
    |psi|^2 = 0.995
==== e(   6) =    16.03007 eV ==== 
     psi = 0.321*[#   5]+0.321*[#   8]+0.111*[#   6]+0.111*[#   7]+0.111*[#   9]
          +0.006*[#  11]+0.006*[#  12]+0.006*[#  13]
    |psi|^2 = 0.996
==== e(   7) =    16.12225 eV ==== 
     psi = 0.309*[#   5]+0.309*[#   8]+0.125*[#   6]+0.125*[#   7]+0.125*[#   9]
          
    |psi|^2 = 0.997
==== e(   8) =    17.06063 eV ==== 
     psi = 0.146*[#  11]+0.146*[#  12]+0.146*[#  13]+0.093*[#   6]+0.093*[#   7]
          +0.093*[#   9]+0.032*[#   5]+0.032*[#   8]+0.002*[#   2]+0.002*[#   3]
          +0.002*[#   4]
    |psi|^2 = 0.788
==== e(   9) =    18.04629 eV ==== 
     psi = 0.208*[#   6]+0.208*[#   7]+0.208*[#   9]+0.188*[#   5]+0.188*[#   8]
          
    |psi|^2 = 1.000
==== e(  10) =    18.52929 eV ==== 
     psi = 0.144*[#   5]+0.144*[#   8]+0.129*[#   6]+0.129*[#   7]+0.129*[#   9]
          +0.107*[#  11]+0.107*[#  12]+0.107*[#  13]+0.001*[#   2]+0.001*[#   3]
          +0.001*[#   4]
    |psi|^2 = 1.000

Lowdin Charges: 

     Atom #   1: total charge =  17.0232, s =  2.4486, p =  6.1080, d =  8.4666, 
                 spin up      =   8.8345, s =  1.2198, 
                 spin up      =   8.8345, p =  3.0211, pz=  1.0070, px=  1.0070, py=  1.0070, 
                 spin up      =   8.8345, d =  4.5935, dz2=  0.9308, dxz=  0.9106, dyz=  0.9106, dx2-y2=  0.9308, dxy=  0.9106, 
                 spin down    =   8.1887, s =  1.2288, 
                 spin down    =   8.1887, p =  3.0869, pz=  1.0290, px=  1.0290, py=  1.0290, 
                 spin down    =   8.1887, d =  3.8731, dz2=  0.8427, dxz=  0.7292, dyz=  0.7292, dx2-y2=  0.8427, dxy=  0.7292, 
                 polarization =   0.6457, s = -0.0089, p = -0.0658, d =  0.7204, 
     Spilling Parameter:   0.0543

     PROJWFC      :      6.50s CPU      6.82s WALL


   This run was terminated on:  10:19:36   7May2021            

=------------------------------------------------------------------------------=
   JOB DONE.
=------------------------------------------------------------------------------=
