
     Program PWSCF v.6.7GPU starts on  7May2021 at 10:12:57 

     This program is part of the open-source Quantum ESPRESSO suite
     for quantum simulation of materials; please cite
         "P. Giannozzi et al., J. Phys.:Condens. Matter 21 395502 (2009);
         "P. Giannozzi et al., J. Phys.:Condens. Matter 29 465901 (2017);
         "P. Giannozzi et al., J. Chem. Phys. 152 154105 (2020);
          URL http://www.quantum-espresso.org", 
     in publications or presentations arising from this work. More details at
     http://www.quantum-espresso.org/quote

     Parallel version (MPI & OpenMP), running on       2 processor cores
     Number of MPI processes:                 2
     Threads/MPI process:                     1

     MPI processes distributed on     1 nodes
     K-points division:     npool     =       2
     Reading input from ni.scf.in

     Current dimensions of program PWSCF are:
     Max number of different atomic species (ntypx) = 10
     Max number of k-points (npk) =  40000
     Max angular momentum in pseudopotentials (lmaxx) =  3

     Subspace diagonalization in iterative solution of the eigenvalue problem:
     a serial algorithm will be used


     G-vector sticks info
     --------------------
     sticks:   dense  smooth     PW     G-vecs:    dense   smooth      PW
     Sum         559     271     97                 8441     2975     645

     Using Slab Decomposition



     bravais-lattice index     =            2
     lattice parameter (alat)  =       6.6480  a.u.
     unit-cell volume          =      73.4536 (a.u.)^3
     number of atoms/cell      =            1
     number of atomic types    =            1
     number of electrons       =        18.00
     number of Kohn-Sham states=           10
     kinetic-energy cutoff     =      45.0000  Ry
     charge density cutoff     =     360.0000  Ry
     scf convergence threshold =      1.0E-08
     mixing beta               =       0.7000
     number of iterations used =            8  plain     mixing
     Exchange-correlation=  SLA  PW   PBX  PBC
                           (   1   4   3   4   0   0   0)

     celldm(1)=   6.648000  celldm(2)=   0.000000  celldm(3)=   0.000000
     celldm(4)=   0.000000  celldm(5)=   0.000000  celldm(6)=   0.000000

     crystal axes: (cart. coord. in units of alat)
               a(1) = (  -0.500000   0.000000   0.500000 )  
               a(2) = (   0.000000   0.500000   0.500000 )  
               a(3) = (  -0.500000   0.500000   0.000000 )  

     reciprocal axes: (cart. coord. in units 2 pi/alat)
               b(1) = ( -1.000000 -1.000000  1.000000 )  
               b(2) = (  1.000000  1.000000  1.000000 )  
               b(3) = ( -1.000000  1.000000 -1.000000 )  


     PseudoPot. # 1 for Ni read from file:
     /home/pietro/repositories/materials-for-max-qe2021-online-school/pseudo/ni_pbe_v1.4.uspp.F.UPF
     MD5 check sum: 1ee80287db30b12d2bc1f57a5b5d6409
     Pseudo is Ultrasoft + core correction, Zval = 18.0
     Generated by new atomic code, or converted to UPF format
     Using radial grid of  865 points,  6 beta functions with: 
                l(1) =   0
                l(2) =   0
                l(3) =   1
                l(4) =   1
                l(5) =   2
                l(6) =   2
     Q(r) pseudized with 10 coefficients,  rinner =    0.980   0.980   0.980
                                                       0.980   0.980

     atomic species   valence    mass     pseudopotential
        Ni            18.00    58.69000     Ni( 1.00)

     Starting magnetic structure 
     atomic species   magnetization
        Ni           0.700

     48 Sym. Ops., with inversion, found



   Cartesian axes

     site n.     atom                  positions (alat units)
         1           Ni  tau(   1) = (   0.0000000   0.0000000   0.0000000  )

     number of k points=   280  Marzari-Vanderbilt smearing, width (Ry)=  0.0100

     Number of k-points >= 100: set verbosity='high' to print them.

     Dense  grid:     8441 G-vectors     FFT dimensions: (  30,  30,  30)

     Smooth grid:     2975 G-vectors     FFT dimensions: (  24,  24,  24)

     Estimated max dynamical RAM per process >      38.82 MB

     Estimated total dynamical RAM >      73.53 MB

     Check: negative core charge=   -0.000008
     Generating pointlists ...
     new r_m :   0.2917 (alat units)  1.9391 (a.u.) for type    1

     Initial potential from superposition of free atoms

     starting charge   16.00000, renormalised to   18.00000
     Starting wfcs are   13 randomized atomic wfcs

     total cpu time spent up to now is        1.2 secs

     Self-consistent Calculation

     iteration #  1     ecut=    45.00 Ry     beta= 0.70
     Davidson diagonalization with overlap
     ethr =  1.00E-02,  avg # of iterations =  3.5

     total cpu time spent up to now is        3.9 secs

     total energy              =    -327.30538640 Ry
     estimated scf accuracy    <      34.77637267 Ry

     total magnetization       =     2.00 Bohr mag/cell
     absolute magnetization    =     2.35 Bohr mag/cell

     iteration #  2     ecut=    45.00 Ry     beta= 0.70
     Davidson diagonalization with overlap
     ethr =  1.00E-02,  avg # of iterations =  3.0

     total cpu time spent up to now is        6.4 secs

     total energy              =    -339.43170101 Ry
     estimated scf accuracy    <      37.43651764 Ry

     total magnetization       =     0.00 Bohr mag/cell
     absolute magnetization    =     0.17 Bohr mag/cell

     iteration #  3     ecut=    45.00 Ry     beta= 0.70
     Davidson diagonalization with overlap
     ethr =  1.00E-02,  avg # of iterations =  2.4

     total cpu time spent up to now is        8.7 secs

     total energy              =    -342.89396650 Ry
     estimated scf accuracy    <       1.28556762 Ry

     total magnetization       =     0.74 Bohr mag/cell
     absolute magnetization    =     1.02 Bohr mag/cell

     iteration #  4     ecut=    45.00 Ry     beta= 0.70
     Davidson diagonalization with overlap
     ethr =  7.14E-03,  avg # of iterations =  2.5

     total cpu time spent up to now is       10.7 secs

     total energy              =    -343.09076532 Ry
     estimated scf accuracy    <       0.79908923 Ry

     total magnetization       =     1.11 Bohr mag/cell
     absolute magnetization    =     1.30 Bohr mag/cell

     iteration #  5     ecut=    45.00 Ry     beta= 0.70
     Davidson diagonalization with overlap
     ethr =  4.44E-03,  avg # of iterations =  2.2

     total cpu time spent up to now is       12.7 secs

     total energy              =    -343.27675778 Ry
     estimated scf accuracy    <       0.06446519 Ry

     total magnetization       =     0.66 Bohr mag/cell
     absolute magnetization    =     0.84 Bohr mag/cell

     iteration #  6     ecut=    45.00 Ry     beta= 0.70
     Davidson diagonalization with overlap
     ethr =  3.58E-04,  avg # of iterations =  1.2

     total cpu time spent up to now is       14.3 secs

     total energy              =    -343.27737451 Ry
     estimated scf accuracy    <       0.00898837 Ry

     total magnetization       =     0.68 Bohr mag/cell
     absolute magnetization    =     0.83 Bohr mag/cell

     iteration #  7     ecut=    45.00 Ry     beta= 0.70
     Davidson diagonalization with overlap
     ethr =  4.99E-05,  avg # of iterations =  2.3

     total cpu time spent up to now is       16.3 secs

     total energy              =    -343.27984079 Ry
     estimated scf accuracy    <       0.00191849 Ry

     total magnetization       =     0.69 Bohr mag/cell
     absolute magnetization    =     0.81 Bohr mag/cell

     iteration #  8     ecut=    45.00 Ry     beta= 0.70
     Davidson diagonalization with overlap
     ethr =  1.07E-05,  avg # of iterations =  1.5

     total cpu time spent up to now is       18.1 secs

     total energy              =    -343.27998955 Ry
     estimated scf accuracy    <       0.00014259 Ry

     total magnetization       =     0.66 Bohr mag/cell
     absolute magnetization    =     0.77 Bohr mag/cell

     iteration #  9     ecut=    45.00 Ry     beta= 0.70
     Davidson diagonalization with overlap
     ethr =  7.92E-07,  avg # of iterations =  2.1

     total cpu time spent up to now is       20.1 secs

     total energy              =    -343.28002636 Ry
     estimated scf accuracy    <       0.00000097 Ry

     total magnetization       =     0.65 Bohr mag/cell
     absolute magnetization    =     0.76 Bohr mag/cell

     iteration # 10     ecut=    45.00 Ry     beta= 0.70
     Davidson diagonalization with overlap
     ethr =  5.39E-09,  avg # of iterations =  3.0

     total cpu time spent up to now is       22.7 secs

     total energy              =    -343.28002403 Ry
     estimated scf accuracy    <       0.00001280 Ry

     total magnetization       =     0.65 Bohr mag/cell
     absolute magnetization    =     0.75 Bohr mag/cell

     iteration # 11     ecut=    45.00 Ry     beta= 0.70
     Davidson diagonalization with overlap
     ethr =  5.39E-09,  avg # of iterations =  3.2

     total cpu time spent up to now is       25.1 secs

     total energy              =    -343.28002592 Ry
     estimated scf accuracy    <       0.00000001 Ry

     total magnetization       =     0.65 Bohr mag/cell
     absolute magnetization    =     0.75 Bohr mag/cell

     iteration # 12     ecut=    45.00 Ry     beta= 0.70
     Davidson diagonalization with overlap
     ethr =  6.02E-11,  avg # of iterations =  2.9

     total cpu time spent up to now is       27.5 secs

     total energy              =    -343.28002591 Ry
     estimated scf accuracy    <       0.00000006 Ry

     total magnetization       =     0.65 Bohr mag/cell
     absolute magnetization    =     0.75 Bohr mag/cell

     iteration # 13     ecut=    45.00 Ry     beta= 0.70
     Davidson diagonalization with overlap
     ethr =  6.02E-11,  avg # of iterations =  3.0

     Magnetic moment per site  (integrated on atomic sphere of radius R)
     atom   1 (R=0.292)  charge= 16.7003  magn=  0.6953

     total cpu time spent up to now is       29.8 secs

     End of self-consistent calculation

     Number of k-points >= 100: set verbosity='high' to print the bands.

     the Fermi energy is    17.8978 ev

!    total energy              =    -343.28002592 Ry
     estimated scf accuracy    <          2.6E-09 Ry
     smearing contrib. (-TS)   =      -0.00016594 Ry
     internal energy E=F+TS    =    -343.27985999 Ry

     The total energy is F=E-TS. E is the sum of the following terms:
     one-electron contribution =    -191.75857507 Ry
     hartree contribution      =     107.49316982 Ry
     xc contribution           =     -35.56449805 Ry
     ewald contribution        =    -223.44995668 Ry

     total magnetization       =     0.65 Bohr mag/cell
     absolute magnetization    =     0.75 Bohr mag/cell

     convergence has been achieved in  13 iterations

     Writing output data file /home/pietro/tmp/ni.save/

     init_run     :      1.10s CPU      1.16s WALL (       1 calls)
     electrons    :     28.27s CPU     28.57s WALL (       1 calls)

     Called by init_run:
     wfcinit      :      0.85s CPU      0.88s WALL (       1 calls)
     potinit      :      0.03s CPU      0.03s WALL (       1 calls)
     hinit0       :      0.20s CPU      0.21s WALL (       1 calls)

     Called by electrons:
     c_bands      :     23.59s CPU     23.83s WALL (      13 calls)
     sum_band     :      4.20s CPU      4.25s WALL (      13 calls)
     v_of_rho     :      0.28s CPU      0.28s WALL (      14 calls)
     newd         :      0.18s CPU      0.20s WALL (      14 calls)
     mix_rho      :      0.02s CPU      0.02s WALL (      13 calls)

     Called by c_bands:
     init_us_2    :      0.50s CPU      0.51s WALL (    7560 calls)
     cegterg      :     21.42s CPU     21.64s WALL (    3640 calls)

     Called by *egterg:
     cdiaghg      :      0.89s CPU      0.90s WALL (   12043 calls)
     h_psi        :     19.86s CPU     20.08s WALL (   12323 calls)
     s_psi        :      0.22s CPU      0.23s WALL (   12323 calls)
     g_psi        :      0.09s CPU      0.09s WALL (    8403 calls)

     Called by h_psi:
     h_psi:calbec :      0.35s CPU      0.35s WALL (   12323 calls)
     vloc_psi     :     19.22s CPU     19.43s WALL (   12323 calls)
     add_vuspsi   :      0.23s CPU      0.23s WALL (   12323 calls)

     General routines
     calbec       :      0.45s CPU      0.46s WALL (   15963 calls)
     fft          :      0.11s CPU      0.11s WALL (     344 calls)
     ffts         :      0.01s CPU      0.01s WALL (      54 calls)
     fftw         :     20.33s CPU     20.56s WALL (  244178 calls)
     interpolate  :      0.01s CPU      0.01s WALL (      28 calls)

     Parallel routines

     PWSCF        :     29.47s CPU     29.86s WALL


   This run was terminated on:  10:13:27   7May2021            

=------------------------------------------------------------------------------=
   JOB DONE.
=------------------------------------------------------------------------------=
