 CRYSTAL
 PRIMVEC
    2.728555512    2.728555512    0.000000000
   -2.728555512    2.728555512    0.000000000
    0.000000000    0.000000000   10.914222047
 PRIMCOORD
           6           1
O         0.000000000    2.728555511    5.014349011
C         0.000000000    2.728555511    3.855813480
Rh        0.000000000    0.000000000    1.772850859
Rh        0.000000000    2.728555511    1.987501103
Rh       -1.364277750    1.364277750    0.000000000
Rh        1.364277750    1.364277750    0.000000000
BEGIN_BLOCK_DATAGRID_3D
3D_PWSCF
DATAGRID_3D_UNKNOWN
          37          37          97
  0.000000  0.000000  0.000000
    2.728556    2.728556    0.000000
   -2.728556    2.728556    0.000000
    0.000000    0.000000   10.914222
  0.358527E-04  0.311017E-04  0.174951E-04 -0.441238E-05 -0.331818E-04 -0.653239E-04
 -0.884200E-04 -0.703662E-04  0.593905E-04  0.469793E-03  0.146742E-02  0.332928E-02
  0.576774E-02  0.745065E-02  0.679660E-02  0.396492E-02  0.118332E-02  0.920056E-04
  0.187138E-04  0.920056E-04  0.118332E-02  0.396492E-02  0.679660E-02  0.745065E-02
  0.576774E-02  0.332928E-02  0.146742E-02  0.469793E-03  0.593905E-04 -0.703662E-04
 -0.884200E-04 -0.653239E-04 -0.331818E-04 -0.441238E-05  0.174951E-04  0.311017E-04
  0.358527E-04  0.311017E-04  0.265402E-04  0.136962E-04 -0.680473E-05 -0.338067E-04
 -0.639370E-04 -0.852506E-04 -0.669593E-04  0.579795E-04  0.448795E-03  0.139789E-02
  0.318379E-02  0.557685E-02  0.735867E-02  0.697980E-02  0.439493E-02  0.154552E-02
  0.112880E-03 -0.160639E-03  0.112880E-03  0.154552E-02  0.439493E-02  0.697980E-02
  0.735867E-02  0.557685E-02  0.318379E-02  0.139789E-02  0.448795E-03  0.579795E-04
 -0.669593E-04 -0.852506E-04 -0.639370E-04 -0.338067E-04 -0.680473E-05  0.136962E-04
  0.265402E-04  0.311017E-04  0.174951E-04  0.136962E-04  0.309272E-05 -0.137439E-04
 -0.359806E-04 -0.607820E-04 -0.776051E-04 -0.589345E-04  0.526367E-04  0.388911E-03
  0.119805E-02  0.274125E-02  0.489588E-02  0.669037E-02  0.665998E-02  0.431655E-02
  0.980957E-03 -0.150158E-02 -0.234005E-02 -0.150158E-02  0.980957E-03  0.431655E-02
  0.665998E-02  0.669037E-02  0.489588E-02  0.274125E-02  0.119805E-02  0.388911E-03
  0.526368E-04 -0.589345E-04 -0.776050E-04 -0.607820E-04 -0.359806E-04 -0.137439E-04
  0.309272E-05  0.136962E-04  0.174951E-04 -0.441238E-05 -0.680472E-05 -0.137439E-04
 -0.251210E-04 -0.405080E-04 -0.580584E-04 -0.691934E-04 -0.509303E-04  0.412892E-04
  0.301554E-03  0.907787E-03  0.205693E-02  0.367645E-02  0.501827E-02  0.475475E-02
  0.205689E-02 -0.228518E-02 -0.618724E-02 -0.772791E-02 -0.618724E-02 -0.228518E-02
  0.205689E-02  0.475475E-02  0.501827E-02  0.367645E-02  0.205693E-02  0.907787E-03
  0.301554E-03  0.412892E-04 -0.509302E-04 -0.691934E-04 -0.580584E-04 -0.405080E-04
 -0.251210E-04 -0.137439E-04 -0.680472E-05 -0.441238E-05 -0.331818E-04 -0.338067E-04
 -0.359806E-04 -0.405080E-04 -0.480520E-04 -0.577271E-04 -0.629423E-04 -0.461449E-04
  0.248105E-04  0.207455E-03  0.602563E-03  0.131247E-02  0.224534E-02  0.281082E-02
  0.190187E-02 -0.134809E-02 -0.642094E-02 -0.111791E-01 -0.131295E-01 -0.111791E-01
 -0.642094E-02 -0.134809E-02  0.190187E-02  0.281082E-02  0.224534E-02  0.131247E-02
  0.602563E-03  0.207455E-03  0.248105E-04 -0.461449E-04 -0.629423E-04 -0.577271E-04
 -0.480520E-04 -0.405080E-04 -0.359806E-04 -0.338067E-04 -0.331818E-04 -0.653239E-04
 -0.639370E-04 -0.607820E-04 -0.580584E-04 -0.577271E-04 -0.597345E-04 -0.592654E-04
 -0.438621E-04  0.871757E-05  0.129068E-03  0.357315E-03  0.715229E-03  0.108491E-02
  0.101882E-02 -0.284190E-03 -0.347703E-02 -0.816420E-02 -0.125396E-01 -0.143424E-01
 -0.125396E-01 -0.816420E-02 -0.347703E-02 -0.284190E-03  0.101882E-02  0.108491E-02
  0.715229E-03  0.357315E-03  0.129068E-03  0.871758E-05 -0.438621E-04 -0.592653E-04
 -0.597344E-04 -0.577271E-04 -0.580584E-04 -0.607820E-04 -0.639370E-04 -0.653239E-04
 -0.884200E-04 -0.852506E-04 -0.776051E-04 -0.691934E-04 -0.629423E-04 -0.592654E-04
 -0.542179E-04 -0.390035E-04  0.108783E-05  0.812177E-04  0.207915E-03  0.360389E-03
  0.427427E-03  0.112700E-03 -0.106568E-02 -0.347737E-02 -0.682804E-02 -0.990213E-02
 -0.111633E-01 -0.990213E-02 -0.682804E-02 -0.347737E-02 -0.106568E-02  0.112700E-03
  0.427427E-03  0.360389E-03  0.207915E-03  0.812177E-04  0.108784E-05 -0.390034E-04
 -0.542179E-04 -0.592653E-04 -0.629423E-04 -0.691934E-04 -0.776050E-04 -0.852506E-04
 -0.884200E-04 -0.703662E-04 -0.669593E-04 -0.589345E-04 -0.509303E-04 -0.461449E-04
 -0.438621E-04 -0.390035E-04 -0.241336E-04  0.999250E-05  0.702242E-04  0.150576E-03
  0.219581E-03  0.195180E-03 -0.888858E-04 -0.870173E-03 -0.230547E-02 -0.420404E-02
 -0.590736E-02 -0.660013E-02 -0.590736E-02 -0.420404E-02 -0.230547E-02 -0.870173E-03
 -0.888858E-04  0.195180E-03  0.219581E-03  0.150576E-03  0.702242E-04  0.999251E-05
 -0.241336E-04 -0.390034E-04 -0.438621E-04 -0.461449E-04 -0.509302E-04 -0.589345E-04
 -0.669593E-04 -0.703662E-04  0.593905E-04  0.579795E-04  0.526367E-04  0.412892E-04
  0.248105E-04  0.871756E-05  0.108782E-05  0.999249E-05  0.414180E-04  0.961222E-04
  0.164342E-03  0.218414E-03  0.205217E-03  0.418662E-04 -0.369850E-03 -0.107689E-02
 -0.197159E-02 -0.275396E-02 -0.306848E-02 -0.275396E-02 -0.197159E-02 -0.107689E-02
 -0.369850E-03  0.418662E-04  0.205217E-03  0.218414E-03  0.164342E-03  0.961222E-04
  0.414180E-04  0.999251E-05  0.108784E-05  0.871758E-05  0.248105E-04  0.412892E-04
  0.526368E-04  0.579795E-04  0.593905E-04  0.469793E-03  0.448795E-03  0.388911E-03
  0.301554E-03  0.207455E-03  0.129068E-03  0.812177E-04  0.702242E-04  0.961222E-04
  0.152464E-03  0.225696E-03  0.292628E-03  0.319209E-03  0.264275E-03  0.902185E-04
 -0.210480E-03 -0.582112E-03 -0.900236E-03 -0.102664E-02 -0.900236E-03 -0.582112E-03
 -0.210480E-03  0.902185E-04  0.264275E-03  0.319209E-03  0.292628E-03  0.225696E-03
  0.152464E-03  0.961222E-04  0.702242E-04  0.812177E-04  0.129068E-03  0.207455E-03
  0.301554E-03  0.388911E-03  0.448795E-03  0.469793E-03  0.146742E-02  0.139789E-02
  0.119805E-02  0.907787E-03  0.602563E-03  0.357315E-03  0.207915E-03  0.150576E-03
  0.164342E-03  0.225696E-03  0.311369E-03  0.397895E-03  0.461679E-03  0.480003E-03
  0.436306E-03  0.331149E-03  0.192014E-03  0.712890E-04  0.232917E-04  0.712890E-04
  0.192014E-03  0.331149E-03  0.436306E-03  0.480003E-03  0.461679E-03  0.397895E-03
  0.311369E-03  0.225696E-03  0.164342E-03  0.150576E-03  0.207915E-03  0.357315E-03
  0.602563E-03  0.907787E-03  0.119805E-02  0.139789E-02  0.146742E-02  0.332928E-02
  0.318379E-02  0.274125E-02  0.205693E-02  0.131247E-02  0.715229E-03  0.360389E-03
  0.219581E-03  0.218414E-03  0.292628E-03  0.397895E-03  0.504730E-03  0.594483E-03
  0.654453E-03  0.676654E-03  0.661479E-03  0.621616E-03  0.580930E-03  0.563881E-03
  0.580930E-03  0.621616E-03  0.661479E-03  0.676654E-03  0.654453E-03  0.594483E-03
  0.504730E-03  0.397895E-03  0.292628E-03  0.218414E-03  0.219581E-03  0.360389E-03
  0.715229E-03  0.131247E-02  0.205693E-02  0.274125E-02  0.318379E-02  0.332928E-02
  0.576774E-02  0.557685E-02  0.489588E-02  0.367645E-02  0.224534E-02  0.108491E-02
  0.427427E-03  0.195180E-03  0.205217E-03  0.319209E-03  0.461679E-03  0.594483E-03
  0.702014E-03  0.780765E-03  0.830263E-03  0.851921E-03  0.852245E-03  0.843389E-03
  0.838456E-03  0.843389E-03  0.852245E-03  0.851921E-03  0.830263E-03  0.780765E-03
  0.702014E-03  0.594483E-03  0.461679E-03  0.319209E-03  0.205217E-03  0.195180E-03
  0.427427E-03  0.108491E-02  0.224534E-02  0.367645E-02  0.489588E-02  0.557685E-02
  0.576774E-02  0.745065E-02  0.735867E-02  0.669037E-02  0.501827E-02  0.281082E-02
  0.101882E-02  0.112700E-03 -0.888858E-04  0.418662E-04  0.264275E-03  0.480003E-03
  0.654453E-03  0.780765E-03  0.867144E-03  0.922720E-03  0.953291E-03  0.964823E-03
  0.965490E-03  0.964286E-03  0.965491E-03  0.964823E-03  0.953291E-03  0.922720E-03
  0.867144E-03  0.780765E-03  0.654453E-03  0.480003E-03  0.264275E-03  0.418662E-04
 -0.888858E-04  0.112700E-03  0.101882E-02  0.281082E-02  0.501827E-02  0.669037E-02
  0.735867E-02  0.745065E-02  0.679660E-02  0.697980E-02  0.665998E-02  0.475475E-02
  0.190187E-02 -0.284190E-03 -0.106568E-02 -0.870173E-03 -0.369850E-03  0.902185E-04
  0.436306E-03  0.676654E-03  0.830263E-03  0.922720E-03  0.976352E-03  0.100409E-02
  0.101406E-02  0.101435E-02  0.101322E-02  0.101435E-02  0.101406E-02  0.100409E-02
  0.976352E-03  0.922720E-03  0.830263E-03  0.676654E-03  0.436306E-03  0.902185E-04
 -0.369850E-03 -0.870173E-03 -0.106568E-02 -0.284190E-03  0.190187E-02  0.475475E-02
  0.665998E-02  0.697980E-02  0.679660E-02  0.396492E-02  0.439493E-02  0.431655E-02
  0.205689E-02 -0.134809E-02 -0.347703E-02 -0.347737E-02 -0.230547E-02 -0.107689E-02
 -0.210480E-03  0.331149E-03  0.661479E-03  0.851921E-03  0.953291E-03  0.100409E-02
  0.102586E-02  0.103036E-02  0.102711E-02  0.102482E-02  0.102711E-02  0.103036E-02
  0.102586E-02  0.100409E-02  0.953291E-03  0.851921E-03  0.661479E-03  0.331149E-03
 -0.210480E-03 -0.107689E-02 -0.230547E-02 -0.347737E-02 -0.347703E-02 -0.134809E-02
  0.205689E-02  0.431655E-02  0.439493E-02  0.396492E-02  0.118332E-02  0.154552E-02
  0.980957E-03 -0.228518E-02 -0.642094E-02 -0.816420E-02 -0.682804E-02 -0.420404E-02
 -0.197159E-02 -0.582112E-03  0.192014E-03  0.621616E-03  0.852245E-03  0.964823E-03
  0.101406E-02  0.103036E-02  0.102959E-02  0.102269E-02  0.101906E-02  0.102269E-02
  0.102959E-02  0.103036E-02  0.101406E-02  0.964823E-03  0.852245E-03  0.621616E-03
  0.192014E-03 -0.582112E-03 -0.197159E-02 -0.420404E-02 -0.682804E-02 -0.816420E-02
 -0.642094E-02 -0.228518E-02  0.980957E-03  0.154552E-02  0.118332E-02  0.920056E-04
  0.112880E-03 -0.150158E-02 -0.618724E-02 -0.111791E-01 -0.125396E-01 -0.990213E-02
 -0.590736E-02 -0.275396E-02 -0.900236E-03  0.712890E-04  0.580930E-03  0.843389E-03
  0.965491E-03  0.101435E-02  0.102711E-02  0.102269E-02  0.101322E-02  0.100865E-02
  0.101322E-02  0.102269E-02  0.102711E-02  0.101435E-02  0.965491E-03  0.843389E-03
  0.580930E-03  0.712890E-04 -0.900236E-03 -0.275396E-02 -0.590736E-02 -0.990213E-02
 -0.125396E-01 -0.111791E-01 -0.618724E-02 -0.150158E-02  0.112880E-03  0.920056E-04
  0.187138E-04 -0.160639E-03 -0.234005E-02 -0.772791E-02 -0.131295E-01 -0.143424E-01
 -0.111633E-01 -0.660013E-02 -0.306848E-02 -0.102664E-02  0.232917E-04  0.563881E-03
  0.838456E-03  0.964286E-03  0.101322E-02  0.102482E-02  0.101906E-02  0.100865E-02
  0.100379E-02  0.100865E-02  0.101906E-02  0.102482E-02  0.101322E-02  0.964286E-03
  0.838456E-03  0.563881E-03  0.232918E-04 -0.102664E-02 -0.306848E-02 -0.660013E-02
 -0.111633E-01 -0.143424E-01 -0.131295E-01 -0.772791E-02 -0.234005E-02 -0.160639E-03
  0.187138E-04  0.920056E-04  0.112880E-03 -0.150158E-02 -0.618724E-02 -0.111791E-01
 -0.125396E-01 -0.990213E-02 -0.590736E-02 -0.275396E-02 -0.900236E-03  0.712890E-04
  0.580930E-03  0.843389E-03  0.965491E-03  0.101435E-02  0.102711E-02  0.102269E-02
  0.101322E-02  0.100865E-02  0.101322E-02  0.102269E-02  0.102711E-02  0.101435E-02
  0.965491E-03  0.843389E-03  0.580930E-03  0.712890E-04 -0.900236E-03 -0.275396E-02
 -0.590736E-02 -0.990213E-02 -0.125396E-01 -0.111791E-01 -0.618724E-02 -0.150158E-02
  0.112880E-03  0.920056E-04  0.118332E-02  0.154552E-02  0.980957E-03 -0.228518E-02
 -0.642094E-02 -0.816420E-02 -0.682804E-02 -0.420404E-02 -0.197159E-02 -0.582112E-03
  0.192014E-03  0.621616E-03  0.852245E-03  0.964823E-03  0.101406E-02  0.103036E-02
  0.102959E-02  0.102269E-02  0.101906E-02  0.102269E-02  0.102959E-02  0.103036E-02
  0.101406E-02  0.964823E-03  0.852245E-03  0.621616E-03  0.192014E-03 -0.582112E-03
 -0.197159E-02 -0.420404E-02 -0.682804E-02 -0.816420E-02 -0.642094E-02 -0.228518E-02
  0.980957E-03  0.154552E-02  0.118332E-02  0.396492E-02  0.439493E-02  0.431655E-02
  0.205689E-02 -0.134809E-02 -0.347703E-02 -0.347737E-02 -0.230547E-02 -0.107689E-02
 -0.210480E-03  0.331149E-03  0.661479E-03  0.851921E-03  0.953291E-03  0.100409E-02
  0.102586E-02  0.103036E-02  0.102711E-02  0.102482E-02  0.102711E-02  0.103036E-02
  0.102586E-02  0.100409E-02  0.953291E-03  0.851921E-03  0.661479E-03  0.331149E-03
 -0.210480E-03 -0.107689E-02 -0.230547E-02 -0.347737E-02 -0.347703E-02 -0.134809E-02
  0.205689E-02  0.431655E-02  0.439493E-02  0.396492E-02  0.679660E-02  0.697980E-02
  0.665998E-02  0.475475E-02  0.190187E-02 -0.284190E-03 -0.106568E-02 -0.870173E-03
 -0.369850E-03  0.902185E-04  0.436306E-03  0.676654E-03  0.830264E-03  0.922720E-03
  0.976352E-03  0.100409E-02  0.101406E-02  0.101435E-02  0.101322E-02  0.101435E-02
  0.101406E-02  0.100409E-02  0.976352E-03  0.922720E-03  0.830264E-03  0.676654E-03
  0.436306E-03  0.902185E-04 -0.369850E-03 -0.870173E-03 -0.106568E-02 -0.284190E-03
  0.190187E-02  0.475475E-02  0.665998E-02  0.697980E-02  0.679660E-02  0.745065E-02
  0.735867E-02  0.669037E-02  0.501827E-02  0.281082E-02  0.101882E-02  0.112700E-03
 -0.888858E-04  0.418662E-04  0.264275E-03  0.480003E-03  0.654453E-03  0.780765E-03
  0.867144E-03  0.922720E-03  0.953291E-03  0.964823E-03  0.965491E-03  0.964286E-03
  0.965491E-03  0.964823E-03  0.953291E-03  0.922720E-03  0.867144E-03  0.780765E-03
  0.654453E-03  0.480003E-03  0.264275E-03  0.418662E-04 -0.888858E-04  0.112700E-03
  0.101882E-02  0.281082E-02  0.501827E-02  0.669037E-02  0.735867E-02  0.745065E-02
  0.576774E-02  0.557685E-02  0.489588E-02  0.367645E-02  0.224534E-02  0.108491E-02
  0.427427E-03  0.195180E-03  0.205217E-03  0.319209E-03  0.461679E-03  0.594483E-03
  0.702014E-03  0.780765E-03  0.830264E-03  0.851921E-03  0.852245E-03  0.843389E-03
  0.838456E-03  0.843389E-03  0.852245E-03  0.851921E-03  0.830264E-03  0.780765E-03
  0.702014E-03  0.594483E-03  0.461679E-03  0.319209E-03  0.205217E-03  0.195180E-03
  0.427427E-03  0.108491E-02  0.224534E-02  0.367645E-02  0.489588E-02  0.557685E-02
  0.576774E-02  0.332928E-02  0.318379E-02  0.274125E-02  0.205693E-02  0.131247E-02
  0.715229E-03  0.360389E-03  0.219581E-03  0.218414E-03  0.292628E-03  0.397895E-03
  0.504730E-03  0.594483E-03  0.654453E-03  0.676654E-03  0.661479E-03  0.621616E-03
  0.580930E-03  0.563881E-03  0.580930E-03  0.621616E-03  0.661479E-03  0.676654E-03
  0.654453E-03  0.594483E-03  0.504730E-03  0.397895E-03  0.292628E-03  0.218414E-03
  0.219581E-03  0.360389E-03  0.715229E-03  0.131247E-02  0.205693E-02  0.274125E-02
  0.318379E-02  0.332928E-02  0.146742E-02  0.139789E-02  0.119805E-02  0.907787E-03
  0.602563E-03  0.357315E-03  0.207915E-03  0.150576E-03  0.164342E-03  0.225696E-03
  0.311369E-03  0.397895E-03  0.461679E-03  0.480003E-03  0.436306E-03  0.331149E-03
  0.192014E-03  0.712890E-04  0.232918E-04  0.712890E-04  0.192014E-03  0.331149E-03
  0.436306E-03  0.480003E-03  0.461679E-03  0.397895E-03  0.311369E-03  0.225696E-03
  0.164342E-03  0.150576E-03  0.207915E-03  0.357315E-03  0.602563E-03  0.907787E-03
  0.119805E-02  0.139789E-02  0.146742E-02  0.469793E-03  0.448795E-03  0.388911E-03
  0.301554E-03  0.207455E-03  0.129068E-03  0.812177E-04  0.702242E-04  0.961222E-04
  0.152464E-03  0.225696E-03  0.292628E-03  0.319209E-03  0.264275E-03  0.902185E-04
 -0.210480E-03 -0.582112E-03 -0.900236E-03 -0.102664E-02 -0.900236E-03 -0.582112E-03
 -0.210480E-03  0.902185E-04  0.264275E-03  0.319209E-03  0.292628E-03  0.225696E-03
  0.152464E-03  0.961222E-04  0.702242E-04  0.812177E-04  0.129068E-03  0.207455E-03
  0.301554E-03  0.388911E-03  0.448795E-03  0.469793E-03  0.593905E-04  0.579795E-04
  0.526368E-04  0.412892E-04  0.248105E-04  0.871759E-05  0.108785E-05  0.999252E-05
  0.414180E-04  0.961222E-04  0.164342E-03  0.218414E-03  0.205217E-03  0.418662E-04
 -0.369850E-03 -0.107689E-02 -0.197159E-02 -0.275396E-02 -0.306848E-02 -0.275396E-02
 -0.197159E-02 -0.107689E-02 -0.369850E-03  0.418662E-04  0.205217E-03  0.218414E-03
  0.164342E-03  0.961222E-04  0.414180E-04  0.999252E-05  0.108786E-05  0.871760E-05
  0.248105E-04  0.412892E-04  0.526368E-04  0.579795E-04  0.593905E-04 -0.703661E-04
 -0.669593E-04 -0.589345E-04 -0.509302E-04 -0.461449E-04 -0.438621E-04 -0.390034E-04
 -0.241336E-04  0.999252E-05  0.702242E-04  0.150576E-03  0.219581E-03  0.195180E-03
 -0.888858E-04 -0.870173E-03 -0.230547E-02 -0.420404E-02 -0.590736E-02 -0.660013E-02
 -0.590736E-02 -0.420404E-02 -0.230547E-02 -0.870173E-03 -0.888858E-04  0.195180E-03
  0.219581E-03  0.150576E-03  0.702242E-04  0.999252E-05 -0.241336E-04 -0.390034E-04
 -0.438621E-04 -0.461449E-04 -0.509302E-04 -0.589344E-04 -0.669593E-04 -0.703661E-04
 -0.884200E-04 -0.852506E-04 -0.776050E-04 -0.691934E-04 -0.629423E-04 -0.592653E-04
 -0.542179E-04 -0.390034E-04  0.108785E-05  0.812177E-04  0.207915E-03  0.360389E-03
  0.427427E-03  0.112700E-03 -0.106568E-02 -0.347737E-02 -0.682804E-02 -0.990213E-02
 -0.111633E-01 -0.990213E-02 -0.682804E-02 -0.347737E-02 -0.106568E-02  0.112700E-03
  0.427427E-03  0.360389E-03  0.207915E-03  0.812177E-04  0.108785E-05 -0.390034E-04
 -0.542179E-04 -0.592653E-04 -0.629422E-04 -0.691934E-04 -0.776050E-04 -0.852506E-04
 -0.884200E-04 -0.653239E-04 -0.639370E-04 -0.607820E-04 -0.580584E-04 -0.577271E-04
 -0.597344E-04 -0.592653E-04 -0.438621E-04  0.871759E-05  0.129068E-03  0.357315E-03
  0.715229E-03  0.108491E-02  0.101882E-02 -0.284190E-03 -0.347703E-02 -0.816420E-02
 -0.125396E-01 -0.143424E-01 -0.125396E-01 -0.816420E-02 -0.347703E-02 -0.284190E-03
  0.101882E-02  0.108491E-02  0.715229E-03  0.357315E-03  0.129068E-03  0.871759E-05
 -0.438621E-04 -0.592653E-04 -0.597344E-04 -0.577271E-04 -0.580584E-04 -0.607819E-04
 -0.639370E-04 -0.653239E-04 -0.331818E-04 -0.338067E-04 -0.359806E-04 -0.405080E-04
 -0.480520E-04 -0.577271E-04 -0.629423E-04 -0.461449E-04  0.248105E-04  0.207455E-03
  0.602563E-03  0.131247E-02  0.224534E-02  0.281082E-02  0.190187E-02 -0.134809E-02
 -0.642094E-02 -0.111791E-01 -0.131295E-01 -0.111791E-01 -0.642094E-02 -0.134809E-02
  0.190187E-02  0.281082E-02  0.224534E-02  0.131247E-02  0.602563E-03  0.207455E-03
  0.248105E-04 -0.461449E-04 -0.629422E-04 -0.577271E-04 -0.480520E-04 -0.405080E-04
 -0.359806E-04 -0.338067E-04 -0.331818E-04 -0.441238E-05 -0.680473E-05 -0.137439E-04
 -0.251210E-04 -0.405080E-04 -0.580584E-04 -0.691934E-04 -0.509302E-04  0.412892E-04
  0.301554E-03  0.907787E-03  0.205693E-02  0.367645E-02  0.501827E-02  0.475475E-02
  0.205689E-02 -0.228518E-02 -0.618724E-02 -0.772791E-02 -0.618724E-02 -0.228518E-02
  0.205689E-02  0.475475E-02  0.501827E-02  0.367645E-02  0.205693E-02  0.907787E-03
  0.301554E-03  0.412892E-04 -0.509302E-04 -0.691934E-04 -0.580584E-04 -0.405080E-04
 -0.251210E-04 -0.137439E-04 -0.680473E-05 -0.441238E-05  0.174951E-04  0.136962E-04
  0.309272E-05 -0.137439E-04 -0.359806E-04 -0.607820E-04 -0.776050E-04 -0.589345E-04
  0.526368E-04  0.388911E-03  0.119805E-02  0.274125E-02  0.489588E-02  0.669037E-02
  0.665998E-02  0.431655E-02  0.980957E-03 -0.150158E-02 -0.234005E-02 -0.150158E-02
  0.980957E-03  0.431655E-02  0.665998E-02  0.669037E-02  0.489588E-02  0.274125E-02
  0.119805E-02  0.388911E-03  0.526368E-04 -0.589345E-04 -0.776050E-04 -0.607820E-04
 -0.359806E-04 -0.137439E-04  0.309272E-05  0.136962E-04  0.174951E-04  0.311017E-04
  0.265402E-04  0.136962E-04 -0.680473E-05 -0.338067E-04 -0.639370E-04 -0.852506E-04
 -0.669593E-04  0.579795E-04  0.448795E-03  0.139789E-02  0.318379E-02  0.557685E-02
  0.735867E-02  0.697980E-02  0.439493E-02  0.154552E-02  0.112880E-03 -0.160639E-03
  0.112880E-03  0.154552E-02  0.439493E-02  0.697980E-02  0.735867E-02  0.557685E-02
  0.318379E-02  0.139789E-02  0.448795E-03  0.579795E-04 -0.669593E-04 -0.852506E-04
 -0.639370E-04 -0.338067E-04 -0.680473E-05  0.136962E-04  0.265402E-04  0.311017E-04
  0.358527E-04  0.311017E-04  0.174951E-04 -0.441238E-05 -0.331818E-04 -0.653239E-04
 -0.884200E-04 -0.703662E-04  0.593905E-04  0.469793E-03  0.146742E-02  0.332928E-02
  0.576774E-02  0.745065E-02  0.679660E-02  0.396492E-02  0.118332E-02  0.920056E-04
  0.187138E-04  0.920056E-04  0.118332E-02  0.396492E-02  0.679660E-02  0.745065E-02
  0.576774E-02  0.332928E-02  0.146742E-02  0.469793E-03  0.593905E-04 -0.703662E-04
 -0.884200E-04 -0.653239E-04 -0.331818E-04 -0.441238E-05  0.174951E-04  0.311017E-04
  0.358527E-04  0.329804E-04  0.277364E-04  0.128130E-04 -0.104333E-04 -0.410657E-04
 -0.779252E-04 -0.111823E-03 -0.117151E-03 -0.368271E-04  0.261937E-03  0.994245E-03
  0.226542E-02  0.361871E-02  0.383900E-02  0.201499E-02 -0.744170E-03 -0.190385E-02
 -0.830680E-03  0.100112E-03 -0.830680E-03 -0.190385E-02 -0.744170E-03  0.201499E-02
  0.383900E-02  0.361871E-02  0.226542E-02  0.994245E-03  0.261937E-03 -0.368271E-04
 -0.117151E-03 -0.111823E-03 -0.779252E-04 -0.410657E-04 -0.104333E-04  0.128130E-04
  0.277364E-04  0.329804E-04  0.277364E-04  0.227813E-04  0.890240E-05 -0.126453E-04
 -0.411612E-04 -0.753080E-04 -0.106143E-03 -0.108991E-03 -0.293535E-04  0.259238E-03
  0.966888E-03  0.221824E-02  0.363637E-02  0.412669E-02  0.278048E-02  0.444522E-03
 -0.677193E-03  0.923533E-04  0.828432E-03  0.923533E-04 -0.677193E-03  0.444522E-03
  0.278048E-02  0.412669E-02  0.363637E-02  0.221824E-02  0.966888E-03  0.259238E-03
 -0.293535E-04 -0.108991E-03 -0.106143E-03 -0.753080E-04 -0.411612E-04 -0.126453E-04
  0.890240E-05  0.227813E-04  0.277364E-04  0.128130E-04  0.890241E-05 -0.192939E-05
 -0.188922E-04 -0.414963E-04 -0.682698E-04 -0.911637E-04 -0.876550E-04 -0.102304E-04
  0.248595E-03  0.877472E-03  0.202854E-02  0.348644E-02  0.441670E-02  0.391281E-02
  0.222367E-02  0.822512E-03  0.579198E-03  0.739952E-03  0.579198E-03  0.822512E-03
  0.222367E-02  0.391281E-02  0.441670E-02  0.348644E-02  0.202854E-02  0.877472E-03
  0.248595E-03 -0.102304E-04 -0.876550E-04 -0.911637E-04 -0.682697E-04 -0.414963E-04
 -0.188921E-04 -0.192939E-05  0.890241E-05  0.128130E-04 -0.104333E-04 -0.126453E-04
 -0.188922E-04 -0.290670E-04 -0.428487E-04 -0.590834E-04 -0.712493E-04 -0.599436E-04
  0.130660E-04  0.227441E-03  0.727581E-03  0.165315E-02  0.289988E-02  0.386119E-02
  0.364780E-02  0.196201E-02 -0.375468E-03 -0.215862E-02 -0.278044E-02 -0.215862E-02
 -0.375468E-03  0.196201E-02  0.364780E-02  0.386119E-02  0.289988E-02  0.165315E-02
  0.727581E-03  0.227441E-03  0.130661E-04 -0.599436E-04 -0.712493E-04 -0.590834E-04
 -0.428487E-04 -0.290670E-04 -0.188921E-04 -0.126452E-04 -0.104333E-04 -0.410657E-04
 -0.411612E-04 -0.414963E-04 -0.428487E-04 -0.459237E-04 -0.501735E-04 -0.505279E-04
 -0.316542E-04  0.354463E-04  0.201934E-03  0.555321E-03  0.118037E-02  0.199647E-02
  0.253931E-02  0.200630E-02 -0.139581E-03 -0.343191E-02 -0.643203E-02 -0.763796E-02
 -0.643203E-02 -0.343191E-02 -0.139581E-03  0.200630E-02  0.253931E-02  0.199647E-02
  0.118037E-02  0.555321E-03  0.201934E-03  0.354464E-04 -0.316542E-04 -0.505279E-04
 -0.501735E-04 -0.459237E-04 -0.428487E-04 -0.414963E-04 -0.411612E-04 -0.410657E-04
 -0.779252E-04 -0.753080E-04 -0.682698E-04 -0.590834E-04 -0.501735E-04 -0.420275E-04
 -0.306732E-04 -0.454436E-05  0.576310E-04  0.184960E-03  0.415668E-03  0.774120E-03
  0.116961E-02  0.124795E-02  0.390645E-03 -0.188260E-02 -0.525399E-02 -0.839308E-02
 -0.968220E-02 -0.839308E-02 -0.525399E-02 -0.188260E-02  0.390645E-03  0.124795E-02
  0.116961E-02  0.774120E-03  0.415668E-03  0.184960E-03  0.576310E-04 -0.454434E-05
 -0.306732E-04 -0.420275E-04 -0.501735E-04 -0.590834E-04 -0.682697E-04 -0.753080E-04
 -0.779252E-04 -0.111823E-03 -0.106143E-03 -0.911637E-04 -0.712493E-04 -0.505279E-04
 -0.306732E-04 -0.843080E-05  0.251044E-04  0.851261E-04  0.187730E-03  0.341927E-03
  0.534464E-03  0.677623E-03  0.531469E-03 -0.293063E-03 -0.209161E-02 -0.463504E-02
 -0.698046E-02 -0.794382E-02 -0.698046E-02 -0.463504E-02 -0.209161E-02 -0.293063E-03
  0.531469E-03  0.677623E-03  0.534464E-03  0.341927E-03  0.187730E-03  0.851261E-04
  0.251044E-04 -0.843078E-05 -0.306732E-04 -0.505279E-04 -0.712493E-04 -0.911637E-04
 -0.106143E-03 -0.111823E-03 -0.117151E-03 -0.108991E-03 -0.876550E-04 -0.599436E-04
 -0.316542E-04 -0.454436E-05  0.251044E-04  0.651675E-04  0.126321E-03  0.217602E-03
  0.336418E-03  0.457213E-03  0.511369E-03  0.359797E-03 -0.195721E-03 -0.128745E-02
 -0.276577E-02 -0.410420E-02 -0.465037E-02 -0.410420E-02 -0.276577E-02 -0.128745E-02
 -0.195721E-03  0.359797E-03  0.511369E-03  0.457213E-03  0.336418E-03  0.217602E-03
  0.126321E-03  0.651675E-04  0.251044E-04 -0.454434E-05 -0.316542E-04 -0.599436E-04
 -0.876550E-04 -0.108991E-03 -0.117151E-03 -0.368271E-04 -0.293535E-04 -0.102304E-04
  0.130660E-04  0.354463E-04  0.576310E-04  0.851261E-04  0.126321E-03  0.189141E-03
  0.277493E-03  0.385193E-03  0.488485E-03  0.540197E-03  0.467194E-03  0.184579E-03
 -0.349496E-03 -0.104885E-02 -0.166891E-02 -0.191951E-02 -0.166891E-02 -0.104885E-02
 -0.349496E-03  0.184579E-03  0.467194E-03  0.540197E-03  0.488485E-03  0.385193E-03
  0.277493E-03  0.189141E-03  0.126321E-03  0.851261E-04  0.576310E-04  0.354464E-04
  0.130661E-04 -0.102304E-04 -0.293535E-04 -0.368271E-04  0.261937E-03  0.259238E-03
  0.248595E-03  0.227441E-03  0.201934E-03  0.184960E-03  0.187730E-03  0.217602E-03
  0.277493E-03  0.365235E-03  0.471618E-03  0.577102E-03  0.650828E-03  0.653926E-03
  0.551646E-03  0.335720E-03  0.517069E-04 -0.197383E-03 -0.297360E-03 -0.197383E-03
  0.517069E-04  0.335720E-03  0.551646E-03  0.653926E-03  0.650828E-03  0.577102E-03
  0.471618E-03  0.365235E-03  0.277493E-03  0.217602E-03  0.187730E-03  0.184960E-03
  0.201934E-03  0.227441E-03  0.248595E-03  0.259238E-03  0.261937E-03  0.994245E-03
  0.966888E-03  0.877472E-03  0.727581E-03  0.555321E-03  0.415668E-03  0.341927E-03
  0.336418E-03  0.385193E-03  0.471618E-03  0.578713E-03  0.687943E-03  0.779060E-03
  0.830178E-03  0.824566E-03  0.760733E-03  0.661382E-03  0.570519E-03  0.533577E-03
  0.570519E-03  0.661382E-03  0.760733E-03  0.824566E-03  0.830178E-03  0.779060E-03
  0.687943E-03  0.578713E-03  0.471618E-03  0.385193E-03  0.336418E-03  0.341927E-03
  0.415668E-03  0.555321E-03  0.727581E-03  0.877472E-03  0.966888E-03  0.994245E-03
  0.226542E-02  0.221824E-02  0.202854E-02  0.165315E-02  0.118037E-02  0.774120E-03
  0.534464E-03  0.457213E-03  0.488485E-03  0.577102E-03  0.687943E-03  0.798520E-03
  0.894798E-03  0.965486E-03  0.100213E-02  0.100315E-02  0.978817E-03  0.949779E-03
  0.937002E-03  0.949779E-03  0.978817E-03  0.100315E-02  0.100213E-02  0.965486E-03
  0.894798E-03  0.798520E-03  0.687943E-03  0.577102E-03  0.488485E-03  0.457213E-03
  0.534464E-03  0.774120E-03  0.118037E-02  0.165315E-02  0.202854E-02  0.221824E-02
  0.226542E-02  0.361871E-02  0.363637E-02  0.348644E-02  0.289988E-02  0.199647E-02
  0.116961E-02  0.677623E-03  0.511369E-03  0.540197E-03  0.650828E-03  0.779060E-03
  0.894798E-03  0.988441E-03  0.105834E-02  0.110341E-02  0.112351E-02  0.112383E-02
  0.111572E-02  0.111119E-02  0.111572E-02  0.112383E-02  0.112351E-02  0.110341E-02
  0.105834E-02  0.988441E-03  0.894798E-03  0.779060E-03  0.650828E-03  0.540197E-03
  0.511369E-03  0.677623E-03  0.116961E-02  0.199647E-02  0.289988E-02  0.348644E-02
  0.363637E-02  0.361871E-02  0.383900E-02  0.412669E-02  0.441670E-02  0.386119E-02
  0.253931E-02  0.124795E-02  0.531469E-03  0.359797E-03  0.467194E-03  0.653926E-03
  0.830178E-03  0.965486E-03  0.105834E-02  0.111881E-02  0.115491E-02  0.117079E-02
  0.117149E-02  0.116545E-02  0.116199E-02  0.116545E-02  0.117149E-02  0.117079E-02
  0.115491E-02  0.111881E-02  0.105834E-02  0.965486E-03  0.830178E-03  0.653926E-03
  0.467194E-03  0.359797E-03  0.531469E-03  0.124795E-02  0.253931E-02  0.386119E-02
  0.441670E-02  0.412669E-02  0.383900E-02  0.201499E-02  0.278048E-02  0.391281E-02
  0.364780E-02  0.200630E-02  0.390645E-03 -0.293063E-03 -0.195721E-03  0.184579E-03
  0.551646E-03  0.824566E-03  0.100213E-02  0.110341E-02  0.115491E-02  0.117719E-02
  0.118058E-02  0.117205E-02  0.116044E-02  0.115514E-02  0.116044E-02  0.117205E-02
  0.118058E-02  0.117719E-02  0.115491E-02  0.110341E-02  0.100213E-02  0.824566E-03
  0.551646E-03  0.184579E-03 -0.195721E-03 -0.293063E-03  0.390645E-03  0.200630E-02
  0.364780E-02  0.391281E-02  0.278048E-02  0.201499E-02 -0.744170E-03  0.444522E-03
  0.222367E-02  0.196201E-02 -0.139581E-03 -0.188260E-02 -0.209161E-02 -0.128745E-02
 -0.349496E-03  0.335720E-03  0.760733E-03  0.100315E-02  0.112351E-02  0.117079E-02
  0.118058E-02  0.117063E-02  0.115116E-02  0.113252E-02  0.112482E-02  0.113252E-02
  0.115116E-02  0.117063E-02  0.118058E-02  0.117079E-02  0.112351E-02  0.100315E-02
  0.760733E-03  0.335720E-03 -0.349496E-03 -0.128745E-02 -0.209161E-02 -0.188260E-02
 -0.139581E-03  0.196201E-02  0.222367E-02  0.444522E-03 -0.744170E-03 -0.190385E-02
 -0.677193E-03  0.822512E-03 -0.375468E-03 -0.343191E-02 -0.525399E-02 -0.463504E-02
 -0.276577E-02 -0.104885E-02  0.517069E-04  0.661382E-03  0.978817E-03  0.112383E-02
  0.117149E-02  0.117205E-02  0.115116E-02  0.112251E-02  0.109778E-02  0.108793E-02
  0.109778E-02  0.112251E-02  0.115116E-02  0.117205E-02  0.117149E-02  0.112383E-02
  0.978817E-03  0.661382E-03  0.517069E-04 -0.104885E-02 -0.276577E-02 -0.463504E-02
 -0.525399E-02 -0.343191E-02 -0.375468E-03  0.822512E-03 -0.677193E-03 -0.190385E-02
 -0.830680E-03  0.923533E-04  0.579198E-03 -0.215862E-02 -0.643203E-02 -0.839308E-02
 -0.698046E-02 -0.410420E-02 -0.166891E-02 -0.197383E-03  0.570519E-03  0.949779E-03
  0.111572E-02  0.116545E-02  0.116044E-02  0.113252E-02  0.109778E-02  0.106894E-02
  0.105770E-02  0.106894E-02  0.109778E-02  0.113252E-02  0.116044E-02  0.116545E-02
  0.111572E-02  0.949779E-03  0.570519E-03 -0.197383E-03 -0.166891E-02 -0.410420E-02
 -0.698046E-02 -0.839308E-02 -0.643203E-02 -0.215862E-02  0.579198E-03  0.923533E-04
 -0.830680E-03  0.100112E-03  0.828433E-03  0.739952E-03 -0.278044E-02 -0.763796E-02
 -0.968220E-02 -0.794382E-02 -0.465037E-02 -0.191951E-02 -0.297360E-03  0.533577E-03
  0.937002E-03  0.111119E-02  0.116199E-02  0.115514E-02  0.112482E-02  0.108793E-02
  0.105770E-02  0.104607E-02  0.105770E-02  0.108793E-02  0.112482E-02  0.115514E-02
  0.116199E-02  0.111119E-02  0.937002E-03  0.533577E-03 -0.297360E-03 -0.191951E-02