
     Program PROJWFC v.6.7MaX starts on 16Apr2021 at 13: 2:33 

     This program is part of the open-source Quantum ESPRESSO suite
     for quantum simulation of materials; please cite
         "P. Giannozzi et al., J. Phys.:Condens. Matter 21 395502 (2009);
         "P. Giannozzi et al., J. Phys.:Condens. Matter 29 465901 (2017);
          URL http://www.quantum-espresso.org", 
     in publications or presentations arising from this work. More details at
     http://www.quantum-espresso.org/quote

     Parallel version (MPI), running on     1 processors

     MPI processes distributed on     1 nodes

     Reading xml data from directory:

     ./tmp/FeO.save/
     Message from routine volume:
     axis vectors are left-handed
     file Fe.pbesol-spn-kjpaw_psl.0.2.1.UPF: wavefunction(s)  3D renormalized
     file Fe.pbesol-spn-kjpaw_psl.0.2.1.UPF: wavefunction(s)  3D renormalized
     file O.pbesol-n-kjpaw_psl.0.1.UPF: wavefunction(s)  2P renormalized

     IMPORTANT: XC functional enforced from input :
     Exchange-correlation= PBESOL
                           (   1   4  10   8   0   0   0)
     Any further DFT definition will be discarded
     Please, verify this is what you really want

 
     G-vector sticks info
     --------------------
     sticks:   dense  smooth     PW     G-vecs:    dense   smooth      PW
     Sum        1061     539    189                17255     6111    1273
 

     Check: negative core charge=   -0.000246

     negative rho (up, down):  2.638E-04 2.638E-04

     Gaussian broadening (read from input): ngauss,degauss=   0    0.005000


     Calling projwave .... 
 
  Problem Sizes 
  natomwfc =           34
  nbnd     =           35
  nkstot   =           64
  npwx     =          780
  nkb      =           52
 

     Atomic states used for projection
     (read from pseudopotential files):

     state #   1: atom   1 (Fe1), wfc  1 (l=0 m= 1)
     state #   2: atom   1 (Fe1), wfc  2 (l=0 m= 1)
     state #   3: atom   1 (Fe1), wfc  3 (l=1 m= 1)
     state #   4: atom   1 (Fe1), wfc  3 (l=1 m= 2)
     state #   5: atom   1 (Fe1), wfc  3 (l=1 m= 3)
     state #   6: atom   1 (Fe1), wfc  4 (l=1 m= 1)
     state #   7: atom   1 (Fe1), wfc  4 (l=1 m= 2)
     state #   8: atom   1 (Fe1), wfc  4 (l=1 m= 3)
     state #   9: atom   1 (Fe1), wfc  5 (l=2 m= 1)
     state #  10: atom   1 (Fe1), wfc  5 (l=2 m= 2)
     state #  11: atom   1 (Fe1), wfc  5 (l=2 m= 3)
     state #  12: atom   1 (Fe1), wfc  5 (l=2 m= 4)
     state #  13: atom   1 (Fe1), wfc  5 (l=2 m= 5)
     state #  14: atom   2 (Fe2), wfc  1 (l=0 m= 1)
     state #  15: atom   2 (Fe2), wfc  2 (l=0 m= 1)
     state #  16: atom   2 (Fe2), wfc  3 (l=1 m= 1)
     state #  17: atom   2 (Fe2), wfc  3 (l=1 m= 2)
     state #  18: atom   2 (Fe2), wfc  3 (l=1 m= 3)
     state #  19: atom   2 (Fe2), wfc  4 (l=1 m= 1)
     state #  20: atom   2 (Fe2), wfc  4 (l=1 m= 2)
     state #  21: atom   2 (Fe2), wfc  4 (l=1 m= 3)
     state #  22: atom   2 (Fe2), wfc  5 (l=2 m= 1)
     state #  23: atom   2 (Fe2), wfc  5 (l=2 m= 2)
     state #  24: atom   2 (Fe2), wfc  5 (l=2 m= 3)
     state #  25: atom   2 (Fe2), wfc  5 (l=2 m= 4)
     state #  26: atom   2 (Fe2), wfc  5 (l=2 m= 5)
     state #  27: atom   3 (O  ), wfc  1 (l=0 m= 1)
     state #  28: atom   3 (O  ), wfc  2 (l=1 m= 1)
     state #  29: atom   3 (O  ), wfc  2 (l=1 m= 2)
     state #  30: atom   3 (O  ), wfc  2 (l=1 m= 3)
     state #  31: atom   4 (O  ), wfc  1 (l=0 m= 1)
     state #  32: atom   4 (O  ), wfc  2 (l=1 m= 1)
     state #  33: atom   4 (O  ), wfc  2 (l=1 m= 2)
     state #  34: atom   4 (O  ), wfc  2 (l=1 m= 3)

 k =   0.0000000000  0.0000000000  0.0000000000
==== e(   1) =   -75.85296 eV ==== 
     psi = 0.980*[#   1]+0.011*[#  15]+0.003*[#   2]
    |psi|^2 = 1.000
==== e(   2) =   -71.94933 eV ==== 
     psi = 0.979*[#  14]+0.011*[#   2]+0.003*[#  15]
    |psi|^2 = 1.000
==== e(   3) =   -41.61144 eV ==== 
     psi = 0.326*[#   3]+0.326*[#   4]+0.326*[#   5]+0.006*[#  19]+0.006*[#  20]
          +0.006*[#  21]
    |psi|^2 = 0.998
==== e(   4) =   -41.45362 eV ==== 
     psi = 0.328*[#   3]+0.328*[#   4]+0.328*[#   5]+0.005*[#   6]+0.005*[#   7]
          +0.005*[#   8]
    |psi|^2 = 0.999
==== e(   5) =   -41.45362 eV ==== 
     psi = 0.328*[#   3]+0.328*[#   4]+0.328*[#   5]+0.005*[#   6]+0.005*[#   7]
          +0.005*[#   8]
    |psi|^2 = 0.999
==== e(   6) =   -37.75621 eV ==== 
     psi = 0.326*[#  16]+0.326*[#  17]+0.326*[#  18]+0.006*[#   6]+0.006*[#   7]
          +0.006*[#   8]
    |psi|^2 = 0.998
==== e(   7) =   -37.72218 eV ==== 
     psi = 0.328*[#  16]+0.328*[#  17]+0.328*[#  18]+0.004*[#  19]+0.004*[#  20]
          +0.004*[#  21]
    |psi|^2 = 0.999
==== e(   8) =   -37.72218 eV ==== 
     psi = 0.328*[#  16]+0.328*[#  17]+0.328*[#  18]+0.004*[#  19]+0.004*[#  20]
          +0.004*[#  21]
    |psi|^2 = 0.999
==== e(   9) =    -6.39258 eV ==== 
     psi = 0.317*[#  27]+0.317*[#  31]+0.180*[#   2]+0.174*[#  15]+0.006*[#  14]
          +0.005*[#   1]
    |psi|^2 = 1.000
==== e(  10) =    -5.20773 eV ==== 
     psi = 0.389*[#  27]+0.389*[#  31]+0.036*[#   6]+0.036*[#   7]+0.036*[#   8]
          +0.035*[#  19]+0.035*[#  20]+0.035*[#  21]+0.001*[#  16]+0.001*[#  17]
          +0.001*[#  18]+0.001*[#   3]+0.001*[#   4]+0.001*[#   5]
    |psi|^2 = 1.000
==== e(  11) =     5.70707 eV ==== 
     psi = 0.106*[#   2]+0.101*[#  28]+0.101*[#  29]+0.101*[#  30]+0.101*[#  32]
          +0.101*[#  33]+0.101*[#  34]+0.101*[#  15]+0.044*[#  10]+0.044*[#  11]
          +0.044*[#  13]+0.017*[#  23]+0.017*[#  24]+0.017*[#  26]+0.002*[#   1]
          +0.002*[#  14]
    |psi|^2 = 0.999
==== e(  12) =     7.90872 eV ==== 
     psi = 0.182*[#   9]+0.182*[#  12]+0.084*[#  28]+0.084*[#  29]+0.084*[#  30]
          +0.084*[#  32]+0.084*[#  33]+0.084*[#  34]+0.032*[#  22]+0.032*[#  25]
          +0.018*[#  10]+0.018*[#  11]+0.018*[#  13]+0.003*[#  23]+0.003*[#  24]
          +0.003*[#  26]
    |psi|^2 = 0.999
==== e(  13) =     7.90872 eV ==== 
     psi = 0.182*[#   9]+0.182*[#  12]+0.084*[#  28]+0.084*[#  29]+0.084*[#  30]
          +0.084*[#  32]+0.084*[#  33]+0.084*[#  34]+0.032*[#  22]+0.032*[#  25]
          +0.018*[#  10]+0.018*[#  11]+0.018*[#  13]+0.003*[#  23]+0.003*[#  24]
          +0.003*[#  26]
    |psi|^2 = 0.999
==== e(  14) =    10.40961 eV ==== 
     psi = 0.282*[#  10]+0.282*[#  11]+0.282*[#  13]+0.017*[#  23]+0.017*[#  24]
          +0.017*[#  26]+0.013*[#  28]+0.013*[#  29]+0.013*[#  30]+0.013*[#  32]
          +0.013*[#  33]+0.013*[#  34]+0.011*[#   2]+0.009*[#  15]
    |psi|^2 = 0.998
==== e(  15) =    10.57456 eV ==== 
     psi = 0.301*[#  10]+0.301*[#  11]+0.301*[#  13]+0.032*[#   9]+0.032*[#  12]
          +0.009*[#  23]+0.009*[#  24]+0.009*[#  26]+0.001*[#  28]+0.001*[#  29]
          +0.001*[#  30]+0.001*[#  32]+0.001*[#  33]+0.001*[#  34]
    |psi|^2 = 0.999
==== e(  16) =    10.57457 eV ==== 
     psi = 0.301*[#  10]+0.301*[#  11]+0.301*[#  13]+0.032*[#   9]+0.032*[#  12]
          +0.009*[#  23]+0.009*[#  24]+0.009*[#  26]+0.001*[#  28]+0.001*[#  29]
          +0.001*[#  30]+0.001*[#  32]+0.001*[#  33]+0.001*[#  34]
    |psi|^2 = 0.999
==== e(  17) =    10.65794 eV ==== 
     psi = 0.164*[#  28]+0.164*[#  29]+0.164*[#  30]+0.164*[#  32]+0.164*[#  33]
          +0.164*[#  34]+0.002*[#  19]+0.002*[#  20]+0.002*[#  21]+0.002*[#   6]
          +0.002*[#   7]+0.002*[#   8]
    |psi|^2 = 0.996
==== e(  18) =    10.67448 eV ==== 
     psi = 0.164*[#  28]+0.164*[#  29]+0.164*[#  30]+0.164*[#  32]+0.164*[#  33]
          +0.164*[#  34]+0.002*[#   6]+0.002*[#   7]+0.002*[#   8]+0.002*[#  19]
          +0.002*[#  20]+0.002*[#  21]
    |psi|^2 = 0.996
==== e(  19) =    10.67448 eV ==== 
     psi = 0.164*[#  28]+0.164*[#  29]+0.164*[#  30]+0.164*[#  32]+0.164*[#  33]
          +0.164*[#  34]+0.002*[#   6]+0.002*[#   7]+0.002*[#   8]+0.002*[#  19]
          +0.002*[#  20]+0.002*[#  21]
    |psi|^2 = 0.996
==== e(  20) =    11.55892 eV ==== 
     psi = 0.259*[#   9]+0.259*[#  12]+0.110*[#  22]+0.110*[#  25]+0.036*[#  28]
          +0.036*[#  29]+0.036*[#  30]+0.036*[#  32]+0.036*[#  33]+0.036*[#  34]
          +0.008*[#  23]+0.008*[#  24]+0.008*[#  26]+0.006*[#  10]+0.006*[#  11]
          +0.006*[#  13]
    |psi|^2 = 0.995
==== e(  21) =    11.55892 eV ==== 
     psi = 0.259*[#   9]+0.259*[#  12]+0.110*[#  22]+0.110*[#  25]+0.036*[#  28]
          +0.036*[#  29]+0.036*[#  30]+0.036*[#  32]+0.036*[#  33]+0.036*[#  34]
          +0.008*[#  23]+0.008*[#  24]+0.008*[#  26]+0.006*[#  10]+0.006*[#  11]
          +0.006*[#  13]
    |psi|^2 = 0.995
==== e(  22) =    13.43487 eV ==== 
     psi = 0.304*[#  23]+0.304*[#  24]+0.304*[#  26]+0.027*[#  22]+0.027*[#  25]
          +0.008*[#  10]+0.008*[#  11]+0.008*[#  13]+0.001*[#  28]+0.001*[#  29]
          +0.001*[#  30]+0.001*[#  32]+0.001*[#  33]+0.001*[#  34]
    |psi|^2 = 0.996
==== e(  23) =    13.43487 eV ==== 
     psi = 0.304*[#  23]+0.304*[#  24]+0.304*[#  26]+0.027*[#  22]+0.027*[#  25]
          +0.008*[#  10]+0.008*[#  11]+0.008*[#  13]+0.001*[#  28]+0.001*[#  29]
          +0.001*[#  30]+0.001*[#  32]+0.001*[#  33]+0.001*[#  34]
    |psi|^2 = 0.996
==== e(  24) =    14.06900 eV ==== 
     psi = 0.294*[#  23]+0.294*[#  24]+0.294*[#  26]+0.014*[#  28]+0.014*[#  29]
          +0.014*[#  30]+0.014*[#  32]+0.014*[#  33]+0.014*[#  34]+0.008*[#   2]
          +0.006*[#  10]+0.006*[#  11]+0.006*[#  13]
    |psi|^2 = 0.994
==== e(  25) =    14.66096 eV ==== 
     psi = 0.322*[#   2]+0.292*[#  15]+0.181*[#  27]+0.181*[#  31]+0.008*[#  14]
          +0.007*[#   1]
    |psi|^2 = 0.995
==== e(  26) =    15.63412 eV ==== 
     psi = 0.329*[#  22]+0.329*[#  25]+0.044*[#  28]+0.044*[#  29]+0.044*[#  30]
          +0.044*[#  32]+0.044*[#  33]+0.044*[#  34]+0.026*[#   9]+0.026*[#  12]
          +0.007*[#  23]+0.007*[#  24]+0.007*[#  26]
    |psi|^2 = 0.995
==== e(  27) =    15.63412 eV ==== 
     psi = 0.329*[#  22]+0.329*[#  25]+0.044*[#  28]+0.044*[#  29]+0.044*[#  30]
          +0.044*[#  32]+0.044*[#  33]+0.044*[#  34]+0.026*[#   9]+0.026*[#  12]
          +0.007*[#  23]+0.007*[#  24]+0.007*[#  26]
    |psi|^2 = 0.995
==== e(  28) =    19.20110 eV ==== 
     psi = 0.122*[#   6]+0.122*[#   7]+0.122*[#   8]+0.115*[#  19]+0.115*[#  20]
          +0.115*[#  21]+0.099*[#  27]+0.099*[#  31]+0.002*[#  16]+0.002*[#  17]
          +0.002*[#  18]+0.001*[#   3]+0.001*[#   4]+0.001*[#   5]
    |psi|^2 = 0.917
==== e(  29) =    23.07477 eV ==== 
     psi = 0.390*[#  15]+0.345*[#   2]+0.036*[#  28]+0.036*[#  29]+0.036*[#  30]
          +0.036*[#  32]+0.036*[#  33]+0.036*[#  34]+0.005*[#   1]+0.004*[#  14]
          +0.002*[#  23]+0.002*[#  24]+0.002*[#  26]
    |psi|^2 = 0.965
==== e(  30) =    28.86225 eV ==== 
     psi = 0.125*[#   6]+0.125*[#   7]+0.125*[#   8]+0.112*[#  19]+0.112*[#  20]
          +0.112*[#  21]+0.001*[#   3]+0.001*[#   4]+0.001*[#   5]+0.001*[#  16]
          +0.001*[#  17]+0.001*[#  18]
    |psi|^2 = 0.718
==== e(  31) =    28.86225 eV ==== 
     psi = 0.125*[#   6]+0.125*[#   7]+0.125*[#   8]+0.112*[#  19]+0.112*[#  20]
          +0.112*[#  21]+0.001*[#   3]+0.001*[#   4]+0.001*[#   5]+0.001*[#  16]
          +0.001*[#  17]+0.001*[#  18]
    |psi|^2 = 0.718
==== e(  32) =    29.22360 eV ==== 
 
    |psi|^2 = 0.000
==== e(  33) =    31.04975 eV ==== 
     psi = 0.002*[#  23]+0.002*[#  24]+0.002*[#  26]+0.001*[#  15]
    |psi|^2 = 0.008
==== e(  34) =    31.05882 eV ==== 
     psi = 0.002*[#  23]+0.002*[#  24]+0.002*[#  26]
    |psi|^2 = 0.005
==== e(  35) =    31.05882 eV ==== 
     psi = 0.002*[#  23]+0.002*[#  24]+0.002*[#  26]
    |psi|^2 = 0.005

 k =   0.2500000000 -0.0833333333 -0.0833333333
==== e(   1) =   -75.86100 eV ==== 
     psi = 0.946*[#   1]+0.010*[#   6]+0.010*[#   7]+0.010*[#   8]+0.005*[#  19]
          +0.005*[#  20]+0.005*[#  21]+0.001*[#   2]+0.001*[#  15]
    |psi|^2 = 1.000
==== e(   2) =   -71.95666 eV ==== 
     psi = 0.946*[#  14]+0.010*[#  19]+0.010*[#  20]+0.010*[#  21]+0.005*[#   6]
          +0.005*[#   7]+0.005*[#   8]+0.001*[#   2]+0.001*[#  15]
    |psi|^2 = 1.000
==== e(   3) =   -41.63220 eV ==== 
     psi = 0.328*[#   3]+0.328*[#   4]+0.328*[#   5]+0.004*[#  19]+0.004*[#  20]
          +0.004*[#  21]
    |psi|^2 = 0.998
==== e(   4) =   -41.49288 eV ==== 
     psi = 0.330*[#   3]+0.330*[#   4]+0.330*[#   5]+0.002*[#   2]
    |psi|^2 = 0.998
==== e(   5) =   -41.47797 eV ==== 
     psi = 0.328*[#   3]+0.328*[#   4]+0.328*[#   5]+0.004*[#   6]+0.004*[#   7]
          +0.004*[#   8]
    |psi|^2 = 0.999
==== e(   6) =   -37.78083 eV ==== 
     psi = 0.328*[#  16]+0.328*[#  17]+0.328*[#  18]+0.004*[#   6]+0.004*[#   7]
          +0.004*[#   8]
    |psi|^2 = 0.998
==== e(   7) =   -37.76322 eV ==== 
     psi = 0.330*[#  16]+0.330*[#  17]+0.330*[#  18]+0.002*[#  15]
    |psi|^2 = 0.998
==== e(   8) =   -37.74752 eV ==== 
     psi = 0.329*[#  16]+0.329*[#  17]+0.329*[#  18]+0.003*[#  19]+0.003*[#  20]
          +0.003*[#  21]
    |psi|^2 = 0.998
==== e(   9) =    -6.15657 eV ==== 
     psi = 0.308*[#  27]+0.308*[#  31]+0.084*[#   2]+0.081*[#  15]+0.033*[#   6]
          +0.033*[#   7]+0.033*[#   8]+0.033*[#  19]+0.033*[#  20]+0.033*[#  21]
          +0.008*[#  14]+0.007*[#   1]
    |psi|^2 = 1.000
==== e(  10) =    -5.20131 eV ==== 
     psi = 0.405*[#  27]+0.405*[#  31]+0.028*[#   6]+0.028*[#   7]+0.028*[#   8]
          +0.028*[#  19]+0.028*[#  20]+0.028*[#  21]+0.004*[#   9]+0.004*[#  12]
          +0.003*[#  22]+0.003*[#  25]
    |psi|^2 = 0.999
==== e(  11) =     6.18698 eV ==== 
     psi = 0.101*[#  28]+0.101*[#  29]+0.101*[#  30]+0.101*[#  32]+0.101*[#  33]
          +0.101*[#  34]+0.080*[#   2]+0.077*[#  15]+0.042*[#  10]+0.042*[#  11]
          +0.042*[#  13]+0.014*[#  23]+0.014*[#  24]+0.014*[#  26]+0.008*[#   6]
          +0.008*[#   7]+0.008*[#   8]+0.008*[#  19]+0.008*[#  20]+0.008*[#  21]
          +0.003*[#   9]+0.003*[#  12]+0.002*[#  14]+0.002*[#   1]+0.001*[#  22]
          +0.001*[#  25]
    |psi|^2 = 0.999
==== e(  12) =     7.86717 eV ==== 
     psi = 0.152*[#   9]+0.152*[#  12]+0.088*[#  28]+0.088*[#  29]+0.088*[#  30]
          +0.088*[#  32]+0.088*[#  33]+0.088*[#  34]+0.024*[#  10]+0.024*[#  11]
          +0.024*[#  13]+0.011*[#  22]+0.011*[#  25]+0.009*[#   6]+0.009*[#   7]
          +0.009*[#   8]+0.007*[#  19]+0.007*[#  20]+0.007*[#  21]+0.006*[#  23]
          +0.006*[#  24]+0.006*[#  26]
    |psi|^2 = 0.999
==== e(  13) =     8.03237 eV ==== 
     psi = 0.189*[#   9]+0.189*[#  12]+0.086*[#  28]+0.086*[#  29]+0.086*[#  30]
          +0.086*[#  32]+0.086*[#  33]+0.086*[#  34]+0.030*[#  22]+0.030*[#  25]
          +0.009*[#  10]+0.009*[#  11]+0.009*[#  13]+0.002*[#  23]+0.002*[#  24]
          +0.002*[#  26]+0.002*[#  19]+0.002*[#  20]+0.002*[#  21]+0.002*[#   6]
          +0.002*[#   7]+0.002*[#   8]
    |psi|^2 = 0.999
==== e(  14) =     8.74391 eV ==== 
     psi = 0.107*[#  28]+0.107*[#  29]+0.107*[#  30]+0.107*[#  32]+0.107*[#  33]
          +0.107*[#  34]+0.043*[#   2]+0.034*[#  22]+0.034*[#  25]+0.032*[#  10]
          +0.032*[#  11]+0.032*[#  13]+0.029*[#   9]+0.029*[#  12]+0.024*[#  15]
          +0.020*[#  27]+0.020*[#  31]+0.004*[#  19]+0.004*[#  20]+0.004*[#  21]
          +0.002*[#   1]+0.002*[#  23]+0.002*[#  24]+0.002*[#  26]+0.002*[#  14]
          
    |psi|^2 = 0.997
==== e(  15) =     9.76286 eV ==== 
     psi = 0.117*[#  28]+0.117*[#  29]+0.117*[#  30]+0.117*[#  32]+0.117*[#  33]
          +0.117*[#  34]+0.040*[#  10]+0.040*[#  11]+0.040*[#  13]+0.028*[#  22]
          +0.028*[#  25]+0.018*[#   9]+0.018*[#  12]+0.017*[#  23]+0.017*[#  24]
          +0.017*[#  26]+0.005*[#   6]+0.005*[#   7]+0.005*[#   8]+0.003*[#   2]
          +0.003*[#  15]+0.002*[#  19]+0.002*[#  20]+0.002*[#  21]+0.001*[#  27]
          +0.001*[#  31]
    |psi|^2 = 0.997
==== e(  16) =     9.77820 eV ==== 
     psi = 0.098*[#  28]+0.098*[#  29]+0.098*[#  30]+0.098*[#  32]+0.098*[#  33]
          +0.098*[#  34]+0.093*[#  10]+0.093*[#  11]+0.093*[#  13]+0.029*[#   9]
          +0.029*[#  12]+0.017*[#  22]+0.017*[#  25]+0.008*[#  23]+0.008*[#  24]
          +0.008*[#  26]+0.004*[#   6]+0.004*[#   7]+0.004*[#   8]+0.002*[#  19]
          +0.002*[#  20]+0.002*[#  21]
    |psi|^2 = 0.998
==== e(  17) =    10.41505 eV ==== 
     psi = 0.288*[#  10]+0.288*[#  11]+0.288*[#  13]+0.013*[#  23]+0.013*[#  24]
          +0.013*[#  26]+0.011*[#  28]+0.011*[#  29]+0.011*[#  30]+0.011*[#  32]
          +0.011*[#  33]+0.011*[#  34]+0.008*[#   2]+0.008*[#   9]+0.008*[#  12]
          +0.005*[#  15]
    |psi|^2 = 0.998
==== e(  18) =    10.98174 eV ==== 
     psi = 0.219*[#  10]+0.219*[#  11]+0.219*[#  13]+0.040*[#   9]+0.040*[#  12]
          +0.035*[#  28]+0.035*[#  29]+0.035*[#  30]+0.035*[#  32]+0.035*[#  33]
          +0.035*[#  34]+0.018*[#  15]+0.009*[#  27]+0.009*[#  31]+0.003*[#   2]
          +0.001*[#  19]+0.001*[#  20]+0.001*[#  21]
    |psi|^2 = 0.998
==== e(  19) =    11.04570 eV ==== 
     psi = 0.223*[#  10]+0.223*[#  11]+0.223*[#  13]+0.042*[#  28]+0.042*[#  29]
          +0.042*[#  30]+0.042*[#  32]+0.042*[#  33]+0.042*[#  34]+0.027*[#  22]
          +0.027*[#  25]+0.010*[#   9]+0.010*[#  12]
    |psi|^2 = 0.998
==== e(  20) =    11.84365 eV ==== 
     psi = 0.250*[#   9]+0.250*[#  12]+0.058*[#  22]+0.058*[#  25]+0.054*[#  28]
          +0.054*[#  29]+0.054*[#  30]+0.054*[#  32]+0.054*[#  33]+0.054*[#  34]
          +0.010*[#  23]+0.010*[#  24]+0.010*[#  26]+0.006*[#  10]+0.006*[#  11]
          +0.006*[#  13]+0.003*[#  19]+0.003*[#  20]+0.003*[#  21]
    |psi|^2 = 0.996
==== e(  21) =    12.13414 eV ==== 
     psi = 0.233*[#   9]+0.233*[#  12]+0.068*[#  28]+0.068*[#  29]+0.068*[#  30]
          +0.068*[#  32]+0.068*[#  33]+0.068*[#  34]+0.012*[#  27]+0.012*[#  31]
          +0.011*[#  23]+0.011*[#  24]+0.011*[#  26]+0.011*[#  15]+0.008*[#  10]
          +0.008*[#  11]+0.008*[#  13]+0.004*[#  22]+0.004*[#  25]+0.003*[#   6]
          +0.003*[#   7]+0.003*[#   8]+0.003*[#  19]+0.003*[#  20]+0.003*[#  21]
          +0.002*[#   2]
    |psi|^2 = 0.994
==== e(  22) =    13.37071 eV ==== 
     psi = 0.278*[#  23]+0.278*[#  24]+0.278*[#  26]+0.036*[#  22]+0.036*[#  25]
          +0.007*[#  28]+0.007*[#  29]+0.007*[#  30]+0.007*[#  32]+0.007*[#  33]
          +0.007*[#  34]+0.006*[#  10]+0.006*[#  11]+0.006*[#  13]+0.005*[#  15]
          +0.005*[#  27]+0.005*[#  31]+0.002*[#   6]+0.002*[#   7]+0.002*[#   8]
          +0.002*[#   9]+0.002*[#  12]+0.001*[#   2]
    |psi|^2 = 0.994
==== e(  23) =    13.62814 eV ==== 
     psi = 0.305*[#  23]+0.305*[#  24]+0.305*[#  26]+0.015*[#  22]+0.015*[#  25]
          +0.007*[#  28]+0.007*[#  29]+0.007*[#  30]+0.007*[#  32]+0.007*[#  33]
          +0.007*[#  34]+0.002*[#  10]+0.002*[#  11]+0.002*[#  13]
    |psi|^2 = 0.997
==== e(  24) =    14.11277 eV ==== 
     psi = 0.294*[#  23]+0.294*[#  24]+0.294*[#  26]+0.012*[#  28]+0.012*[#  29]
          +0.012*[#  30]+0.012*[#  32]+0.012*[#  33]+0.012*[#  34]+0.009*[#   2]
          +0.006*[#  22]+0.006*[#  25]+0.003*[#  10]+0.003*[#  11]+0.003*[#  13]
          +0.003*[#  27]+0.003*[#  31]+0.001*[#  19]+0.001*[#  20]+0.001*[#  21]
          
    |psi|^2 = 0.995
==== e(  25) =    15.13407 eV ==== 
     psi = 0.322*[#  22]+0.322*[#  25]+0.039*[#   2]+0.030*[#  27]+0.030*[#  31]
          +0.022*[#  28]+0.022*[#  29]+0.022*[#  30]+0.022*[#  32]+0.022*[#  33]
          +0.022*[#  34]+0.020*[#  23]+0.020*[#  24]+0.020*[#  26]+0.011*[#  15]
          +0.007*[#   9]+0.007*[#  12]+0.007*[#  19]+0.007*[#  20]+0.007*[#  21]
          +0.003*[#   6]+0.003*[#   7]+0.003*[#   8]
    |psi|^2 = 0.996
==== e(  26) =    15.56177 eV ==== 
     psi = 0.352*[#  22]+0.352*[#  25]+0.038*[#  28]+0.038*[#  29]+0.038*[#  30]
          +0.038*[#  32]+0.038*[#  33]+0.038*[#  34]+0.021*[#   9]+0.021*[#  12]
          +0.005*[#  23]+0.005*[#  24]+0.005*[#  26]+0.001*[#   6]+0.001*[#   7]
          +0.001*[#   8]
    |psi|^2 = 0.996
==== e(  27) =    16.34030 eV ==== 
     psi = 0.134*[#   2]+0.122*[#  27]+0.122*[#  31]+0.121*[#  15]+0.047*[#  22]
          +0.047*[#  25]+0.036*[#  28]+0.036*[#  29]+0.036*[#  30]+0.036*[#  32]
          +0.036*[#  33]+0.036*[#  34]+0.030*[#   6]+0.030*[#   7]+0.030*[#   8]
          +0.025*[#  19]+0.025*[#  20]+0.025*[#  21]+0.008*[#  14]+0.007*[#   1]
          +0.001*[#   9]+0.001*[#  12]
    |psi|^2 = 0.995
==== e(  28) =    20.60804 eV ==== 
     psi = 0.115*[#   6]+0.115*[#   7]+0.115*[#   8]+0.110*[#  19]+0.110*[#  20]
          +0.110*[#  21]+0.065*[#  27]+0.065*[#  31]+0.013*[#  28]+0.013*[#  29]
          +0.013*[#  30]+0.013*[#  32]+0.013*[#  33]+0.013*[#  34]+0.005*[#  22]
          +0.005*[#  25]+0.003*[#  23]+0.003*[#  24]+0.003*[#  26]+0.003*[#   2]
          +0.003*[#  15]+0.002*[#   9]+0.002*[#  12]+0.001*[#  10]+0.001*[#  11]
          +0.001*[#  13]
    |psi|^2 = 0.917
==== e(  29) =    22.99387 eV ==== 
     psi = 0.346*[#  15]+0.317*[#   2]+0.033*[#  28]+0.033*[#  29]+0.033*[#  30]
          +0.033*[#  32]+0.033*[#  33]+0.033*[#  34]+0.016*[#  19]+0.016*[#  20]
          +0.016*[#  21]+0.012*[#   6]+0.012*[#   7]+0.012*[#   8]+0.005*[#   1]
          +0.003*[#  14]+0.002*[#  23]+0.002*[#  24]+0.002*[#  26]
    |psi|^2 = 0.964
==== e(  30) =    26.36136 eV ==== 
     psi = 0.124*[#   6]+0.124*[#   7]+0.124*[#   8]+0.099*[#  19]+0.099*[#  20]
          +0.099*[#  21]+0.064*[#   2]+0.047*[#  15]+0.004*[#  28]+0.004*[#  29]
          +0.004*[#  30]+0.004*[#  32]+0.004*[#  33]+0.004*[#  34]+0.003*[#   1]
          +0.002*[#  23]+0.002*[#  24]+0.002*[#  26]+0.001*[#  14]+0.001*[#  27]
          +0.001*[#  31]+0.001*[#   3]+0.001*[#   4]+0.001*[#   5]
    |psi|^2 = 0.821
==== e(  31) =    27.10636 eV ==== 
     psi = 0.028*[#  19]+0.028*[#  20]+0.028*[#  21]+0.027*[#   6]+0.027*[#   7]
          +0.027*[#   8]+0.017*[#  15]+0.012*[#   2]+0.003*[#  23]+0.003*[#  24]
          +0.003*[#  26]+0.002*[#  14]+0.001*[#   1]
    |psi|^2 = 0.213
==== e(  32) =    29.63801 eV ==== 
     psi = 0.139*[#   6]+0.139*[#   7]+0.139*[#   8]+0.102*[#  19]+0.102*[#  20]
          +0.102*[#  21]+0.003*[#  28]+0.003*[#  29]+0.003*[#  30]+0.003*[#  32]
          +0.003*[#  33]+0.003*[#  34]+0.002*[#   3]+0.002*[#   4]+0.002*[#   5]
          
    |psi|^2 = 0.746
==== e(  33) =    30.70098 eV ==== 
     psi = 0.075*[#  19]+0.075*[#  20]+0.075*[#  21]+0.053*[#   6]+0.053*[#   7]
          +0.053*[#   8]+0.002*[#  23]+0.002*[#  24]+0.002*[#  26]+0.002*[#  16]
          +0.002*[#  17]+0.002*[#  18]+0.001*[#   3]+0.001*[#   4]+0.001*[#   5]
          +0.001*[#  28]+0.001*[#  29]+0.001*[#  30]+0.001*[#  32]+0.001*[#  33]
          +0.001*[#  34]
    |psi|^2 = 0.409
==== e(  34) =    30.80045 eV ==== 
     psi = 0.053*[#  15]+0.048*[#   2]+0.033*[#  19]+0.033*[#  20]+0.033*[#  21]
          +0.018*[#   6]+0.018*[#   7]+0.018*[#   8]+0.006*[#  14]+0.006*[#   1]
          +0.002*[#  23]+0.002*[#  24]+0.002*[#  26]+0.001*[#  27]+0.001*[#  31]
          
    |psi|^2 = 0.282
==== e(  35) =    33.78953 eV ==== 
     psi = 0.058*[#  15]+0.050*[#   2]+0.041*[#  19]+0.041*[#  20]+0.041*[#  21]
          +0.040*[#   6]+0.040*[#   7]+0.040*[#   8]+0.007*[#   1]+0.006*[#  14]
          +0.001*[#  27]+0.001*[#  31]
    |psi|^2 = 0.372

 k =   0.5000000000 -0.1666666667 -0.1666666667
==== e(   1) =   -75.86151 eV ==== 
     psi = 0.952*[#   1]+0.008*[#   2]+0.007*[#   6]+0.007*[#   7]+0.007*[#   8]
          +0.005*[#  19]+0.005*[#  20]+0.005*[#  21]
    |psi|^2 = 1.000
==== e(   2) =   -71.95657 eV ==== 
     psi = 0.952*[#  14]+0.007*[#  19]+0.007*[#  20]+0.007*[#  21]+0.007*[#  15]
          +0.005*[#   6]+0.005*[#   7]+0.005*[#   8]
    |psi|^2 = 1.000
==== e(   3) =   -41.63119 eV ==== 
     psi = 0.330*[#   3]+0.330*[#   4]+0.330*[#   5]
    |psi|^2 = 0.998
==== e(   4) =   -41.53628 eV ==== 
     psi = 0.329*[#   3]+0.329*[#   4]+0.329*[#   5]
    |psi|^2 = 0.998
==== e(   5) =   -41.48297 eV ==== 
     psi = 0.330*[#   3]+0.330*[#   4]+0.330*[#   5]+0.002*[#   6]+0.002*[#   7]
          +0.002*[#   8]
    |psi|^2 = 0.998
==== e(   6) =   -37.81082 eV ==== 
     psi = 0.329*[#  16]+0.329*[#  17]+0.329*[#  18]
    |psi|^2 = 0.998
==== e(   7) =   -37.77822 eV ==== 
     psi = 0.329*[#  16]+0.329*[#  17]+0.329*[#  18]
    |psi|^2 = 0.998
==== e(   8) =   -37.75347 eV ==== 
     psi = 0.330*[#  16]+0.330*[#  17]+0.330*[#  18]+0.002*[#  19]+0.002*[#  20]
          +0.002*[#  21]
    |psi|^2 = 0.998
==== e(   9) =    -5.63305 eV ==== 
     psi = 0.348*[#  27]+0.348*[#  31]+0.037*[#  19]+0.037*[#  20]+0.037*[#  21]
          +0.037*[#   6]+0.037*[#   7]+0.037*[#   8]+0.028*[#   2]+0.027*[#  15]
          +0.004*[#  14]+0.004*[#   1]+0.003*[#   9]+0.003*[#  12]+0.002*[#  22]
          +0.002*[#  25]
    |psi|^2 = 1.000
==== e(  10) =    -5.18379 eV ==== 
     psi = 0.429*[#  27]+0.429*[#  31]+0.017*[#   6]+0.017*[#   7]+0.017*[#   8]
          +0.016*[#  19]+0.016*[#  20]+0.016*[#  21]+0.011*[#   9]+0.011*[#  12]
          +0.009*[#  22]+0.009*[#  25]
    |psi|^2 = 0.999
==== e(  11) =     6.96639 eV ==== 
     psi = 0.098*[#  28]+0.098*[#  29]+0.098*[#  30]+0.098*[#  32]+0.098*[#  33]
          +0.098*[#  34]+0.073*[#  15]+0.072*[#   9]+0.072*[#  12]+0.026*[#  10]
          +0.026*[#  11]+0.026*[#  13]+0.013*[#  19]+0.013*[#  20]+0.013*[#  21]
          +0.010*[#   6]+0.010*[#   7]+0.010*[#   8]+0.010*[#  23]+0.010*[#  24]
          +0.010*[#  26]+0.008*[#   2]+0.004*[#  14]+0.003*[#  27]+0.003*[#  31]
          
    |psi|^2 = 0.999
==== e(  12) =     7.10838 eV ==== 
     psi = 0.101*[#  28]+0.101*[#  29]+0.101*[#  30]+0.101*[#  32]+0.101*[#  33]
          +0.101*[#  34]+0.094*[#   2]+0.034*[#  10]+0.034*[#  11]+0.034*[#  13]
          +0.024*[#  22]+0.024*[#  25]+0.017*[#  19]+0.017*[#  20]+0.017*[#  21]
          +0.016*[#  27]+0.016*[#  31]+0.009*[#   6]+0.009*[#   7]+0.009*[#   8]
          +0.007*[#   9]+0.007*[#  12]+0.004*[#   1]+0.004*[#  23]+0.004*[#  24]
          +0.004*[#  26]+0.003*[#  15]+0.001*[#  14]
    |psi|^2 = 0.998
==== e(  13) =     7.70815 eV ==== 
     psi = 0.113*[#  28]+0.113*[#  29]+0.113*[#  30]+0.113*[#  32]+0.113*[#  33]
          +0.113*[#  34]+0.037*[#  10]+0.037*[#  11]+0.037*[#  13]+0.031*[#   6]
          +0.031*[#   7]+0.031*[#   8]+0.020*[#  19]+0.020*[#  20]+0.020*[#  21]
          +0.013*[#  23]+0.013*[#  24]+0.013*[#  26]+0.003*[#   9]+0.003*[#  12]
          +0.001*[#   3]+0.001*[#   4]+0.001*[#   5]+0.001*[#  22]+0.001*[#  25]
          
    |psi|^2 = 0.999
==== e(  14) =     8.19628 eV ==== 
     psi = 0.204*[#   9]+0.204*[#  12]+0.089*[#  28]+0.089*[#  29]+0.089*[#  30]
          +0.089*[#  32]+0.089*[#  33]+0.089*[#  34]+0.015*[#  22]+0.015*[#  25]
          +0.006*[#  19]+0.006*[#  20]+0.006*[#  21]+0.002*[#   6]+0.002*[#   7]
          +0.002*[#   8]
    |psi|^2 = 0.999
==== e(  15) =     8.72778 eV ==== 
     psi = 0.105*[#  28]+0.105*[#  29]+0.105*[#  30]+0.105*[#  32]+0.105*[#  33]
          +0.105*[#  34]+0.066*[#   9]+0.066*[#  12]+0.027*[#  10]+0.027*[#  11]
          +0.027*[#  13]+0.024*[#  22]+0.024*[#  25]+0.020*[#  15]+0.019*[#  23]
          +0.019*[#  24]+0.019*[#  26]+0.006*[#   6]+0.006*[#   7]+0.006*[#   8]
          +0.002*[#  27]+0.002*[#  31]+0.002*[#  19]+0.002*[#  20]+0.002*[#  21]
          
    |psi|^2 = 0.997
==== e(  16) =     9.20279 eV ==== 
     psi = 0.116*[#  28]+0.116*[#  29]+0.116*[#  30]+0.116*[#  32]+0.116*[#  33]
          +0.116*[#  34]+0.052*[#  22]+0.052*[#  25]+0.039*[#  10]+0.039*[#  11]
          +0.039*[#  13]+0.011*[#   9]+0.011*[#  12]+0.010*[#   6]+0.010*[#   7]
          +0.010*[#   8]+0.008*[#  23]+0.008*[#  24]+0.008*[#  26]+0.001*[#  19]
          +0.001*[#  20]+0.001*[#  21]
    |psi|^2 = 0.998
==== e(  17) =    10.30728 eV ==== 
     psi = 0.275*[#  10]+0.275*[#  11]+0.275*[#  13]+0.033*[#   9]+0.033*[#  12]
          +0.013*[#  28]+0.013*[#  29]+0.013*[#  30]+0.013*[#  32]+0.013*[#  33]
          +0.013*[#  34]+0.006*[#   2]+0.005*[#  23]+0.005*[#  24]+0.005*[#  26]
          +0.002*[#  27]+0.002*[#  31]
    |psi|^2 = 0.998
==== e(  18) =    11.03323 eV ==== 
     psi = 0.269*[#  10]+0.269*[#  11]+0.269*[#  13]+0.043*[#   9]+0.043*[#  12]
          +0.016*[#  22]+0.016*[#  25]+0.012*[#  28]+0.012*[#  29]+0.012*[#  30]
          +0.012*[#  32]+0.012*[#  33]+0.012*[#  34]
    |psi|^2 = 0.999
==== e(  19) =    11.26915 eV ==== 
     psi = 0.249*[#  10]+0.249*[#  11]+0.249*[#  13]+0.030*[#  28]+0.030*[#  29]
          +0.030*[#  30]+0.030*[#  32]+0.030*[#  33]+0.030*[#  34]+0.018*[#   9]
          +0.018*[#  12]+0.007*[#   2]+0.005*[#  15]+0.005*[#  27]+0.005*[#  31]
          +0.004*[#  19]+0.004*[#  20]+0.004*[#  21]
    |psi|^2 = 0.998
==== e(  20) =    12.00674 eV ==== 
     psi = 0.276*[#   9]+0.276*[#  12]+0.048*[#  28]+0.048*[#  29]+0.048*[#  30]
          +0.048*[#  32]+0.048*[#  33]+0.048*[#  34]+0.021*[#  22]+0.021*[#  25]
          +0.021*[#  27]+0.021*[#  31]+0.013*[#  15]+0.010*[#  10]+0.010*[#  11]
          +0.010*[#  13]+0.005*[#   2]+0.003*[#  19]+0.003*[#  20]+0.003*[#  21]
          +0.003*[#  23]+0.003*[#  24]+0.003*[#  26]+0.001*[#   6]+0.001*[#   7]
          +0.001*[#   8]
    |psi|^2 = 0.994
==== e(  21) =    12.31852 eV ==== 
     psi = 0.232*[#   9]+0.232*[#  12]+0.064*[#  28]+0.064*[#  29]+0.064*[#  30]
          +0.064*[#  32]+0.064*[#  33]+0.064*[#  34]+0.024*[#  10]+0.024*[#  11]
          +0.024*[#  13]+0.016*[#  22]+0.016*[#  25]+0.009*[#  23]+0.009*[#  24]
          +0.009*[#  26]+0.006*[#  19]+0.006*[#  20]+0.006*[#  21]
    |psi|^2 = 0.997
==== e(  22) =    13.15973 eV ==== 
     psi = 0.282*[#  23]+0.282*[#  24]+0.282*[#  26]+0.017*[#  22]+0.017*[#  25]
          +0.012*[#  28]+0.012*[#  29]+0.012*[#  30]+0.012*[#  32]+0.012*[#  33]
          +0.012*[#  34]+0.007*[#  15]+0.004*[#  27]+0.004*[#  31]+0.003*[#   6]
          +0.003*[#   7]+0.003*[#   8]+0.003*[#  10]+0.003*[#  11]+0.003*[#  13]
          +0.002*[#   9]+0.002*[#  12]
    |psi|^2 = 0.990
==== e(  23) =    13.99222 eV ==== 
     psi = 0.312*[#  23]+0.312*[#  24]+0.312*[#  26]+0.010*[#  28]+0.010*[#  29]
          +0.010*[#  30]+0.010*[#  32]+0.010*[#  33]+0.010*[#  34]+0.001*[#   9]
          +0.001*[#  12]
    |psi|^2 = 0.999
==== e(  24) =    14.38896 eV ==== 
     psi = 0.305*[#  23]+0.305*[#  24]+0.305*[#  26]+0.012*[#  28]+0.012*[#  29]
          +0.012*[#  30]+0.012*[#  32]+0.012*[#  33]+0.012*[#  34]+0.003*[#  22]
          +0.003*[#  25]+0.002*[#   2]+0.001*[#  27]+0.001*[#  31]
    |psi|^2 = 0.997
==== e(  25) =    15.15849 eV ==== 
     psi = 0.371*[#  22]+0.371*[#  25]+0.030*[#  27]+0.030*[#  31]+0.029*[#   2]
          +0.017*[#  28]+0.017*[#  29]+0.017*[#  30]+0.017*[#  32]+0.017*[#  33]
          +0.017*[#  34]+0.011*[#  23]+0.011*[#  24]+0.011*[#  26]+0.005*[#   6]
          +0.005*[#   7]+0.005*[#   8]+0.003*[#  19]+0.003*[#  20]+0.003*[#  21]
          +0.001*[#   9]+0.001*[#  12]
    |psi|^2 = 0.997
==== e(  26) =    15.42491 eV ==== 
     psi = 0.399*[#  22]+0.399*[#  25]+0.028*[#  28]+0.028*[#  29]+0.028*[#  30]
          +0.028*[#  32]+0.028*[#  33]+0.028*[#  34]+0.008*[#   9]+0.008*[#  12]
          +0.003*[#   6]+0.003*[#   7]+0.003*[#   8]+0.001*[#  23]+0.001*[#  24]
          +0.001*[#  26]
    |psi|^2 = 0.998
==== e(  27) =    18.92174 eV ==== 
     psi = 0.109*[#   2]+0.082*[#  27]+0.082*[#  31]+0.072*[#  15]+0.048*[#  19]
          +0.048*[#  20]+0.048*[#  21]+0.048*[#  28]+0.048*[#  29]+0.048*[#  30]
          +0.048*[#  32]+0.048*[#  33]+0.048*[#  34]+0.047*[#   6]+0.047*[#   7]
          +0.047*[#   8]+0.023*[#  22]+0.023*[#  25]+0.005*[#  14]+0.004*[#   9]
          +0.004*[#  12]+0.004*[#   1]
    |psi|^2 = 0.988
==== e(  28) =    22.50476 eV ==== 
     psi = 0.202*[#   2]+0.182*[#  15]+0.061*[#  19]+0.061*[#  20]+0.061*[#  21]
          +0.046*[#   6]+0.046*[#   7]+0.046*[#   8]+0.029*[#  28]+0.029*[#  29]
          +0.029*[#  30]+0.029*[#  32]+0.029*[#  33]+0.029*[#  34]+0.013*[#  27]
          +0.013*[#  31]+0.003*[#  23]+0.003*[#  24]+0.003*[#  26]+0.003*[#  22]
          +0.003*[#  25]+0.002*[#   1]+0.001*[#   9]+0.001*[#  12]+0.001*[#  10]
          +0.001*[#  11]+0.001*[#  13]
    |psi|^2 = 0.931
==== e(  29) =    23.03923 eV ==== 
     psi = 0.233*[#   2]+0.208*[#  15]+0.074*[#   6]+0.074*[#   7]+0.074*[#   8]
          +0.060*[#  19]+0.060*[#  20]+0.060*[#  21]+0.024*[#  27]+0.024*[#  31]
          +0.008*[#   1]+0.004*[#  14]+0.003*[#  23]+0.003*[#  24]+0.003*[#  26]
          +0.001*[#  28]+0.001*[#  29]+0.001*[#  30]+0.001*[#  32]+0.001*[#  33]
          +0.001*[#  34]
    |psi|^2 = 0.919
==== e(  30) =    23.79027 eV ==== 
     psi = 0.129*[#   6]+0.129*[#   7]+0.129*[#   8]+0.120*[#  19]+0.120*[#  20]
          +0.120*[#  21]+0.023*[#  28]+0.023*[#  29]+0.023*[#  30]+0.023*[#  32]
          +0.023*[#  33]+0.023*[#  34]+0.003*[#  23]+0.003*[#  24]+0.003*[#  26]
          
    |psi|^2 = 0.904
==== e(  31) =    25.06300 eV ==== 
     psi = 0.119*[#  15]+0.066*[#   2]+0.057*[#   6]+0.057*[#   7]+0.057*[#   8]
          +0.048*[#  19]+0.048*[#  20]+0.048*[#  21]+0.007*[#  14]+0.005*[#   1]
          +0.005*[#  28]+0.005*[#  29]+0.005*[#  30]+0.005*[#  32]+0.005*[#  33]
          +0.005*[#  34]+0.004*[#  23]+0.004*[#  24]+0.004*[#  26]+0.002*[#  27]
          +0.002*[#  31]
    |psi|^2 = 0.566
==== e(  32) =    27.99364 eV ==== 
     psi = 0.200*[#  15]+0.152*[#   2]+0.060*[#  19]+0.060*[#  20]+0.060*[#  21]
          +0.053*[#   6]+0.053*[#   7]+0.053*[#   8]+0.014*[#  14]+0.013*[#   1]
          +0.002*[#  27]+0.002*[#  31]
    |psi|^2 = 0.734
==== e(  33) =    30.04593 eV ==== 
     psi = 0.183*[#   6]+0.183*[#   7]+0.183*[#   8]+0.035*[#  19]+0.035*[#  20]
          +0.035*[#  21]+0.005*[#  28]+0.005*[#  29]+0.005*[#  30]+0.005*[#  32]
          +0.005*[#  33]+0.005*[#  34]+0.002*[#   3]+0.002*[#   4]+0.002*[#   5]
          +0.001*[#  23]+0.001*[#  24]+0.001*[#  26]
    |psi|^2 = 0.693
==== e(  34) =    30.63116 eV ==== 
     psi = 0.208*[#  19]+0.208*[#  20]+0.208*[#  21]+0.065*[#   6]+0.065*[#   7]
          +0.065*[#   8]+0.007*[#  28]+0.007*[#  29]+0.007*[#  30]+0.007*[#  32]
          +0.007*[#  33]+0.007*[#  34]+0.002*[#  16]+0.002*[#  17]+0.002*[#  18]
          
    |psi|^2 = 0.867
==== e(  35) =    32.15591 eV ==== 
     psi = 0.062*[#  19]+0.062*[#  20]+0.062*[#  21]+0.036*[#   6]+0.036*[#   7]
          +0.036*[#   8]+0.002*[#  28]+0.002*[#  29]+0.002*[#  30]+0.002*[#  32]
          +0.002*[#  33]+0.002*[#  34]
    |psi|^2 = 0.315

 k =  -0.7500000000  0.2500000000  0.2500000000
==== e(   1) =   -75.86216 eV ==== 
     psi = 0.973*[#   1]+0.008*[#   2]+0.005*[#  19]+0.005*[#  20]+0.005*[#  21]
          
    |psi|^2 = 1.000
==== e(   2) =   -71.95701 eV ==== 
     psi = 0.974*[#  14]+0.007*[#  15]+0.005*[#   6]+0.005*[#   7]+0.005*[#   8]
          
    |psi|^2 = 1.000
==== e(   3) =   -41.63730 eV ==== 
     psi = 0.329*[#   3]+0.329*[#   4]+0.329*[#   5]+0.002*[#   6]+0.002*[#   7]
          +0.002*[#   8]
    |psi|^2 = 0.998
==== e(   4) =   -41.55924 eV ==== 
     psi = 0.329*[#   3]+0.329*[#   4]+0.329*[#   5]+0.002*[#   6]+0.002*[#   7]
          +0.002*[#   8]
    |psi|^2 = 0.998
==== e(   5) =   -41.48772 eV ==== 
     psi = 0.331*[#   3]+0.331*[#   4]+0.331*[#   5]+0.001*[#   6]+0.001*[#   7]
          +0.001*[#   8]
    |psi|^2 = 0.998
==== e(   6) =   -37.83431 eV ==== 
     psi = 0.329*[#  16]+0.329*[#  17]+0.329*[#  18]+0.002*[#  19]+0.002*[#  20]
          +0.002*[#  21]
    |psi|^2 = 0.998
==== e(   7) =   -37.78502 eV ==== 
     psi = 0.330*[#  16]+0.330*[#  17]+0.330*[#  18]+0.001*[#  19]+0.001*[#  20]
          +0.001*[#  21]
    |psi|^2 = 0.998
==== e(   8) =   -37.75820 eV ==== 
     psi = 0.331*[#  16]+0.331*[#  17]+0.331*[#  18]
    |psi|^2 = 0.998
==== e(   9) =    -5.26872 eV ==== 
     psi = 0.412*[#  27]+0.412*[#  31]+0.040*[#  19]+0.040*[#  20]+0.040*[#  21]
          +0.019*[#   9]+0.019*[#  12]+0.013*[#   2]+0.001*[#  16]+0.001*[#  17]
          +0.001*[#  18]
    |psi|^2 = 0.999
==== e(  10) =    -5.24801 eV ==== 
     psi = 0.415*[#  27]+0.415*[#  31]+0.041*[#   6]+0.041*[#   7]+0.041*[#   8]
          +0.016*[#  22]+0.016*[#  25]+0.012*[#  15]
    |psi|^2 = 0.999
==== e(  11) =     6.68896 eV ==== 
     psi = 0.100*[#  28]+0.100*[#  29]+0.100*[#  30]+0.100*[#  32]+0.100*[#  33]
          +0.100*[#  34]+0.091*[#   2]+0.051*[#  10]+0.051*[#  11]+0.051*[#  13]
          +0.040*[#  19]+0.040*[#  20]+0.040*[#  21]+0.011*[#   9]+0.011*[#  12]
          +0.003*[#   1]+0.003*[#  27]+0.003*[#  31]+0.001*[#  16]+0.001*[#  17]
          +0.001*[#  18]
    |psi|^2 = 0.999
==== e(  12) =     6.97899 eV ==== 
     psi = 0.112*[#  28]+0.112*[#  29]+0.112*[#  30]+0.112*[#  32]+0.112*[#  33]
          +0.112*[#  34]+0.089*[#  15]+0.045*[#   6]+0.045*[#   7]+0.045*[#   8]
          +0.026*[#  23]+0.026*[#  24]+0.026*[#  26]+0.005*[#  22]+0.005*[#  25]
          +0.004*[#  14]+0.004*[#  27]+0.004*[#  31]+0.001*[#   3]+0.001*[#   4]
          +0.001*[#   5]
    |psi|^2 = 0.999
==== e(  13) =     7.68279 eV ==== 
     psi = 0.122*[#   9]+0.122*[#  12]+0.088*[#  28]+0.088*[#  29]+0.088*[#  30]
          +0.088*[#  32]+0.088*[#  33]+0.088*[#  34]+0.052*[#  10]+0.052*[#  11]
          +0.052*[#  13]+0.018*[#  19]+0.018*[#  20]+0.018*[#  21]+0.012*[#   2]
          +0.001*[#  16]+0.001*[#  17]+0.001*[#  18]
    |psi|^2 = 0.999
==== e(  14) =     8.21791 eV ==== 
     psi = 0.208*[#   9]+0.208*[#  12]+0.087*[#  28]+0.087*[#  29]+0.087*[#  30]
          +0.087*[#  32]+0.087*[#  33]+0.087*[#  34]+0.012*[#  10]+0.012*[#  11]
          +0.012*[#  13]+0.009*[#  19]+0.009*[#  20]+0.009*[#  21]
    |psi|^2 = 0.999
==== e(  15) =     8.37885 eV ==== 
     psi = 0.124*[#  28]+0.124*[#  29]+0.124*[#  30]+0.124*[#  32]+0.124*[#  33]
          +0.124*[#  34]+0.053*[#  22]+0.053*[#  25]+0.022*[#   6]+0.022*[#   7]
          +0.022*[#   8]+0.019*[#  23]+0.019*[#  24]+0.019*[#  26]+0.018*[#  15]
          +0.001*[#   3]+0.001*[#   4]+0.001*[#   5]
    |psi|^2 = 0.996
==== e(  16) =     9.03567 eV ==== 
     psi = 0.129*[#  28]+0.129*[#  29]+0.129*[#  30]+0.129*[#  32]+0.129*[#  33]
          +0.129*[#  34]+0.078*[#  22]+0.078*[#  25]+0.014*[#   6]+0.014*[#   7]
          +0.014*[#   8]+0.009*[#  23]+0.009*[#  24]+0.009*[#  26]
    |psi|^2 = 0.998
==== e(  17) =    10.20682 eV ==== 
     psi = 0.275*[#  10]+0.275*[#  11]+0.275*[#  13]+0.057*[#   9]+0.057*[#  12]
          +0.008*[#  28]+0.008*[#  29]+0.008*[#  30]+0.008*[#  32]+0.008*[#  33]
          +0.008*[#  34]+0.004*[#  27]+0.004*[#  31]+0.003*[#   2]
    |psi|^2 = 0.998
==== e(  18) =    10.99828 eV ==== 
     psi = 0.293*[#  10]+0.293*[#  11]+0.293*[#  13]+0.059*[#   9]+0.059*[#  12]
          
    |psi|^2 = 1.000
==== e(  19) =    11.28909 eV ==== 
     psi = 0.273*[#  10]+0.273*[#  11]+0.273*[#  13]+0.026*[#  28]+0.026*[#  29]
          +0.026*[#  30]+0.026*[#  32]+0.026*[#  33]+0.026*[#  34]+0.022*[#   2]
          +0.001*[#  19]+0.001*[#  20]+0.001*[#  21]
    |psi|^2 = 0.999
==== e(  20) =    12.23097 eV ==== 
     psi = 0.286*[#   9]+0.286*[#  12]+0.049*[#  28]+0.049*[#  29]+0.049*[#  30]
          +0.049*[#  32]+0.049*[#  33]+0.049*[#  34]+0.023*[#  27]+0.023*[#  31]
          +0.012*[#  10]+0.012*[#  11]+0.012*[#  13]+0.012*[#  19]+0.012*[#  20]
          +0.012*[#  21]+0.003*[#   2]
    |psi|^2 = 0.993
==== e(  21) =    12.53384 eV ==== 
     psi = 0.233*[#   9]+0.233*[#  12]+0.070*[#  28]+0.070*[#  29]+0.070*[#  30]
          +0.070*[#  32]+0.070*[#  33]+0.070*[#  34]+0.029*[#  10]+0.029*[#  11]
          +0.029*[#  13]+0.008*[#  19]+0.008*[#  20]+0.008*[#  21]
    |psi|^2 = 0.997
==== e(  22) =    13.01622 eV ==== 
     psi = 0.285*[#  23]+0.285*[#  24]+0.285*[#  26]+0.019*[#  22]+0.019*[#  25]
          +0.012*[#  28]+0.012*[#  29]+0.012*[#  30]+0.012*[#  32]+0.012*[#  33]
          +0.012*[#  34]+0.005*[#  15]+0.003*[#  27]+0.003*[#  31]+0.003*[#   6]
          +0.003*[#   7]+0.003*[#   8]
    |psi|^2 = 0.988
==== e(  23) =    14.13593 eV ==== 
     psi = 0.324*[#  23]+0.324*[#  24]+0.324*[#  26]+0.004*[#  28]+0.004*[#  29]
          +0.004*[#  30]+0.004*[#  32]+0.004*[#  33]+0.004*[#  34]+0.001*[#  22]
          +0.001*[#  25]
    |psi|^2 = 0.999
==== e(  24) =    14.53907 eV ==== 
     psi = 0.312*[#  23]+0.312*[#  24]+0.312*[#  26]+0.009*[#  28]+0.009*[#  29]
          +0.009*[#  30]+0.009*[#  32]+0.009*[#  33]+0.009*[#  34]+0.003*[#  22]
          +0.003*[#  25]+0.002*[#  15]
    |psi|^2 = 0.999
==== e(  25) =    15.36611 eV ==== 
     psi = 0.421*[#  22]+0.421*[#  25]+0.024*[#  28]+0.024*[#  29]+0.024*[#  30]
          +0.024*[#  32]+0.024*[#  33]+0.024*[#  34]+0.004*[#   6]+0.004*[#   7]
          +0.004*[#   8]
    |psi|^2 = 0.998
==== e(  26) =    15.38549 eV ==== 
     psi = 0.393*[#  22]+0.393*[#  25]+0.026*[#  27]+0.026*[#  31]+0.017*[#  28]
          +0.017*[#  29]+0.017*[#  30]+0.017*[#  32]+0.017*[#  33]+0.017*[#  34]
          +0.009*[#  23]+0.009*[#  24]+0.009*[#  26]+0.009*[#   6]+0.009*[#   7]
          +0.009*[#   8]
    |psi|^2 = 0.997
==== e(  27) =    20.81874 eV ==== 
     psi = 0.349*[#   2]+0.115*[#  19]+0.115*[#  20]+0.115*[#  21]+0.039*[#  27]
          +0.039*[#  31]+0.031*[#  28]+0.031*[#  29]+0.031*[#  30]+0.031*[#  32]
          +0.031*[#  33]+0.031*[#  34]+0.002*[#   9]+0.002*[#  12]
    |psi|^2 = 0.963
==== e(  28) =    21.26074 eV ==== 
     psi = 0.231*[#  15]+0.147*[#   6]+0.147*[#   7]+0.147*[#   8]+0.040*[#  27]
          +0.040*[#  31]+0.029*[#  28]+0.029*[#  29]+0.029*[#  30]+0.029*[#  32]
          +0.029*[#  33]+0.029*[#  34]+0.009*[#  22]+0.009*[#  25]+0.004*[#  23]
          +0.004*[#  24]+0.004*[#  26]
    |psi|^2 = 0.957
==== e(  29) =    23.16926 eV ==== 
     psi = 0.388*[#   2]+0.105*[#  19]+0.105*[#  20]+0.105*[#  21]+0.016*[#  28]
          +0.016*[#  29]+0.016*[#  30]+0.016*[#  32]+0.016*[#  33]+0.016*[#  34]
          +0.014*[#   1]+0.008*[#  27]+0.008*[#  31]+0.001*[#  10]+0.001*[#  11]
          +0.001*[#  13]+0.001*[#   9]+0.001*[#  12]
    |psi|^2 = 0.834
==== e(  30) =    23.65381 eV ==== 
     psi = 0.500*[#  15]+0.078*[#   6]+0.078*[#   7]+0.078*[#   8]+0.016*[#  28]
          +0.016*[#  29]+0.016*[#  30]+0.016*[#  32]+0.016*[#  33]+0.016*[#  34]
          +0.014*[#  14]+0.005*[#  23]+0.005*[#  24]+0.005*[#  26]+0.003*[#  27]
          +0.003*[#  31]
    |psi|^2 = 0.867
==== e(  31) =    25.23930 eV ==== 
     psi = 0.218*[#  19]+0.218*[#  20]+0.218*[#  21]+0.085*[#   2]+0.009*[#  28]
          +0.009*[#  29]+0.009*[#  30]+0.009*[#  32]+0.009*[#  33]+0.009*[#  34]
          +0.006*[#   1]+0.002*[#  16]+0.002*[#  17]+0.002*[#  18]+0.002*[#  10]
          +0.002*[#  11]+0.002*[#  13]
    |psi|^2 = 0.808
==== e(  32) =    25.38565 eV ==== 
     psi = 0.222*[#   6]+0.222*[#   7]+0.222*[#   8]+0.100*[#  15]+0.008*[#  28]
          +0.008*[#  29]+0.008*[#  30]+0.008*[#  32]+0.008*[#  33]+0.008*[#  34]
          +0.006*[#  23]+0.006*[#  24]+0.006*[#  26]+0.005*[#  14]+0.002*[#   3]
          +0.002*[#   4]+0.002*[#   5]
    |psi|^2 = 0.841
==== e(  33) =    30.00472 eV ==== 
     psi = 0.243*[#   6]+0.243*[#   7]+0.243*[#   8]+0.007*[#  28]+0.007*[#  29]
          +0.007*[#  30]+0.007*[#  32]+0.007*[#  33]+0.007*[#  34]+0.002*[#   3]
          +0.002*[#   4]+0.002*[#   5]
    |psi|^2 = 0.778
==== e(  34) =    30.37032 eV ==== 
     psi = 0.239*[#  19]+0.239*[#  20]+0.239*[#  21]+0.007*[#  28]+0.007*[#  29]
          +0.007*[#  30]+0.007*[#  32]+0.007*[#  33]+0.007*[#  34]+0.002*[#  16]
          +0.002*[#  17]+0.002*[#  18]
    |psi|^2 = 0.764
==== e(  35) =    32.10703 eV ==== 
     psi = 0.065*[#  19]+0.065*[#  20]+0.065*[#  21]+0.005*[#  27]+0.005*[#  31]
          +0.004*[#   2]+0.002*[#  28]+0.002*[#  29]+0.002*[#  30]+0.002*[#  32]
          +0.002*[#  33]+0.002*[#  34]
    |psi|^2 = 0.225

 k =   0.1666666667  0.1666666667 -0.1666666667
==== e(   1) =   -75.86033 eV ==== 
     psi = 0.943*[#   1]+0.010*[#   6]+0.010*[#   7]+0.010*[#   8]+0.007*[#  19]
          +0.007*[#  20]+0.007*[#  21]+0.002*[#   2]+0.001*[#  15]
    |psi|^2 = 1.000
==== e(   2) =   -71.95596 eV ==== 
     psi = 0.943*[#  14]+0.010*[#  19]+0.010*[#  20]+0.010*[#  21]+0.007*[#   6]
          +0.007*[#   7]+0.007*[#   8]+0.001*[#   2]+0.001*[#  15]
    |psi|^2 = 1.000
==== e(   3) =   -41.62624 eV ==== 
     psi = 0.328*[#   3]+0.328*[#   4]+0.328*[#   5]+0.004*[#  19]+0.004*[#  20]
          +0.004*[#  21]
    |psi|^2 = 0.998
==== e(   4) =   -41.49544 eV ==== 
     psi = 0.330*[#   3]+0.330*[#   4]+0.330*[#   5]+0.002*[#   2]
    |psi|^2 = 0.998
==== e(   5) =   -41.47481 eV ==== 
     psi = 0.328*[#   3]+0.328*[#   4]+0.328*[#   5]+0.004*[#   6]+0.004*[#   7]
          +0.004*[#   8]
    |psi|^2 = 0.999
==== e(   6) =   -37.77503 eV ==== 
     psi = 0.328*[#  16]+0.328*[#  17]+0.328*[#  18]+0.004*[#   6]+0.004*[#   7]
          +0.004*[#   8]
    |psi|^2 = 0.998
==== e(   7) =   -37.76567 eV ==== 
     psi = 0.330*[#  16]+0.330*[#  17]+0.330*[#  18]+0.002*[#  15]
    |psi|^2 = 0.998
==== e(   8) =   -37.74449 eV ==== 
     psi = 0.329*[#  16]+0.329*[#  17]+0.329*[#  18]+0.003*[#  19]+0.003*[#  20]
          +0.003*[#  21]
    |psi|^2 = 0.999
==== e(   9) =    -6.13137 eV ==== 
     psi = 0.308*[#  27]+0.308*[#  31]+0.079*[#   2]+0.075*[#  15]+0.035*[#   6]
          +0.035*[#   7]+0.035*[#   8]+0.035*[#  19]+0.035*[#  20]+0.035*[#  21]
          +0.008*[#  14]+0.008*[#   1]
    |psi|^2 = 1.000
==== e(  10) =    -5.23345 eV ==== 
     psi = 0.401*[#  27]+0.401*[#  31]+0.028*[#   6]+0.028*[#   7]+0.028*[#   8]
          +0.028*[#  19]+0.028*[#  20]+0.028*[#  21]+0.005*[#   9]+0.005*[#  12]
          +0.004*[#  22]+0.004*[#  25]+0.003*[#  15]+0.002*[#   2]
    |psi|^2 = 0.999
==== e(  11) =     6.25700 eV ==== 
     psi = 0.101*[#  28]+0.101*[#  29]+0.101*[#  30]+0.101*[#  32]+0.101*[#  33]
          +0.101*[#  34]+0.076*[#   2]+0.072*[#  15]+0.042*[#  10]+0.042*[#  11]
          +0.042*[#  13]+0.014*[#  23]+0.014*[#  24]+0.014*[#  26]+0.011*[#   6]
          +0.011*[#   7]+0.011*[#   8]+0.011*[#  19]+0.011*[#  20]+0.011*[#  21]
          +0.002*[#  27]+0.002*[#  31]+0.002*[#  14]+0.002*[#   1]
    |psi|^2 = 0.999
==== e(  12) =     7.84875 eV ==== 
     psi = 0.155*[#   9]+0.155*[#  12]+0.088*[#  28]+0.088*[#  29]+0.088*[#  30]
          +0.088*[#  32]+0.088*[#  33]+0.088*[#  34]+0.025*[#  10]+0.025*[#  11]
          +0.025*[#  13]+0.018*[#  22]+0.018*[#  25]+0.007*[#  19]+0.007*[#  20]
          +0.007*[#  21]+0.005*[#   6]+0.005*[#   7]+0.005*[#   8]+0.003*[#   2]
          +0.003*[#  23]+0.003*[#  24]+0.003*[#  26]
    |psi|^2 = 0.999
==== e(  13) =     8.14110 eV ==== 
     psi = 0.197*[#   9]+0.197*[#  12]+0.085*[#  28]+0.085*[#  29]+0.085*[#  30]
          +0.085*[#  32]+0.085*[#  33]+0.085*[#  34]+0.018*[#  22]+0.018*[#  25]
          +0.011*[#  10]+0.011*[#  11]+0.011*[#  13]+0.003*[#  23]+0.003*[#  24]
          +0.003*[#  26]+0.003*[#  19]+0.003*[#  20]+0.003*[#  21]+0.002*[#   6]
          +0.002*[#   7]+0.002*[#   8]
    |psi|^2 = 0.999
==== e(  14) =     8.77682 eV ==== 
     psi = 0.108*[#  28]+0.108*[#  29]+0.108*[#  30]+0.108*[#  32]+0.108*[#  33]
          +0.108*[#  34]+0.056*[#   2]+0.048*[#  10]+0.048*[#  11]+0.048*[#  13]
          +0.044*[#  15]+0.024*[#  27]+0.024*[#  31]+0.014*[#  23]+0.014*[#  24]
          +0.014*[#  26]+0.005*[#   9]+0.005*[#  12]+0.002*[#   1]+0.002*[#  14]
          
    |psi|^2 = 0.997
==== e(  15) =     9.53374 eV ==== 
     psi = 0.104*[#  28]+0.104*[#  29]+0.104*[#  30]+0.104*[#  32]+0.104*[#  33]
          +0.104*[#  34]+0.053*[#  22]+0.053*[#  25]+0.051*[#  10]+0.051*[#  11]
          +0.051*[#  13]+0.050*[#   9]+0.050*[#  12]+0.003*[#   6]+0.003*[#   7]
          +0.003*[#   8]+0.002*[#  23]+0.002*[#  24]+0.002*[#  26]
    |psi|^2 = 0.997
==== e(  16) =     9.55802 eV ==== 
     psi = 0.114*[#  28]+0.114*[#  29]+0.114*[#  30]+0.114*[#  32]+0.114*[#  33]
          +0.114*[#  34]+0.057*[#  22]+0.057*[#  25]+0.053*[#   9]+0.053*[#  12]
          +0.019*[#  10]+0.019*[#  11]+0.019*[#  13]+0.008*[#  23]+0.008*[#  24]
          +0.008*[#  26]+0.004*[#   6]+0.004*[#   7]+0.004*[#   8]+0.003*[#  15]
          
    |psi|^2 = 0.996
==== e(  17) =    10.49025 eV ==== 
     psi = 0.263*[#  10]+0.263*[#  11]+0.263*[#  13]+0.040*[#   9]+0.040*[#  12]
          +0.014*[#  28]+0.014*[#  29]+0.014*[#  30]+0.014*[#  32]+0.014*[#  33]
          +0.014*[#  34]+0.008*[#   2]+0.006*[#  23]+0.006*[#  24]+0.006*[#  26]
          +0.005*[#  15]+0.003*[#  22]+0.003*[#  25]+0.002*[#  27]+0.002*[#  31]
          +0.001*[#  19]+0.001*[#  20]+0.001*[#  21]
    |psi|^2 = 0.999
==== e(  18) =    10.89428 eV ==== 
     psi = 0.263*[#  10]+0.263*[#  11]+0.263*[#  13]+0.023*[#  28]+0.023*[#  29]
          +0.023*[#  30]+0.023*[#  32]+0.023*[#  33]+0.023*[#  34]+0.022*[#  22]
          +0.022*[#  25]+0.006*[#  23]+0.006*[#  24]+0.006*[#  26]+0.002*[#   9]
          +0.002*[#  12]
    |psi|^2 = 0.998
==== e(  19) =    10.91426 eV ==== 
     psi = 0.253*[#  10]+0.253*[#  11]+0.253*[#  13]+0.029*[#  28]+0.029*[#  29]
          +0.029*[#  30]+0.029*[#  32]+0.029*[#  33]+0.029*[#  34]+0.014*[#  15]
          +0.008*[#  27]+0.008*[#  31]+0.005*[#   2]+0.005*[#  22]+0.005*[#  25]
          +0.004*[#   9]+0.004*[#  12]+0.002*[#  19]+0.002*[#  20]+0.002*[#  21]
          +0.002*[#  23]+0.002*[#  24]+0.002*[#  26]
    |psi|^2 = 0.998
==== e(  20) =    12.23560 eV ==== 
     psi = 0.238*[#   9]+0.238*[#  12]+0.069*[#  28]+0.069*[#  29]+0.069*[#  30]
          +0.069*[#  32]+0.069*[#  33]+0.069*[#  34]+0.021*[#  23]+0.021*[#  24]
          +0.021*[#  26]+0.012*[#  22]+0.012*[#  25]+0.004*[#  19]+0.004*[#  20]
          +0.004*[#  21]+0.003*[#  10]+0.003*[#  11]+0.003*[#  13]
    |psi|^2 = 0.996
==== e(  21) =    12.24966 eV ==== 
     psi = 0.227*[#   9]+0.227*[#  12]+0.075*[#  28]+0.075*[#  29]+0.075*[#  30]
          +0.075*[#  32]+0.075*[#  33]+0.075*[#  34]+0.009*[#  22]+0.009*[#  25]
          +0.008*[#  23]+0.008*[#  24]+0.008*[#  26]+0.007*[#  10]+0.007*[#  11]
          +0.007*[#  13]+0.005*[#  27]+0.005*[#  31]+0.005*[#  19]+0.005*[#  20]
          +0.005*[#  21]+0.002*[#   2]
    |psi|^2 = 0.994
==== e(  22) =    13.30828 eV ==== 
     psi = 0.291*[#  23]+0.291*[#  24]+0.291*[#  26]+0.028*[#  22]+0.028*[#  25]
          +0.006*[#  28]+0.006*[#  29]+0.006*[#  30]+0.006*[#  32]+0.006*[#  33]
          +0.006*[#  34]+0.004*[#   6]+0.004*[#   7]+0.004*[#   8]+0.004*[#  27]
          +0.004*[#  31]+0.002*[#  15]+0.001*[#  10]+0.001*[#  11]+0.001*[#  13]
          
    |psi|^2 = 0.994
==== e(  23) =    13.66422 eV ==== 
     psi = 0.292*[#  23]+0.292*[#  24]+0.292*[#  26]+0.019*[#  22]+0.019*[#  25]
          +0.011*[#  28]+0.011*[#  29]+0.011*[#  30]+0.011*[#  32]+0.011*[#  33]
          +0.011*[#  34]+0.004*[#  10]+0.004*[#  11]+0.004*[#  13]+0.003*[#   9]
          +0.003*[#  12]
    |psi|^2 = 0.997
==== e(  24) =    14.11801 eV ==== 
     psi = 0.297*[#  23]+0.297*[#  24]+0.297*[#  26]+0.013*[#  28]+0.013*[#  29]
          +0.013*[#  30]+0.013*[#  32]+0.013*[#  33]+0.013*[#  34]+0.005*[#   2]
          +0.004*[#  10]+0.004*[#  11]+0.004*[#  13]+0.002*[#  27]+0.002*[#  31]
          +0.001*[#  19]+0.001*[#  20]+0.001*[#  21]
    |psi|^2 = 0.995
==== e(  25) =    15.34833 eV ==== 
     psi = 0.368*[#  22]+0.368*[#  25]+0.027*[#  28]+0.027*[#  29]+0.027*[#  30]
          +0.027*[#  32]+0.027*[#  33]+0.027*[#  34]+0.013*[#  27]+0.013*[#  31]
          +0.011*[#  23]+0.011*[#  24]+0.011*[#  26]+0.007*[#   9]+0.007*[#  12]
          +0.005*[#   6]+0.005*[#   7]+0.005*[#   8]+0.002*[#  19]+0.002*[#  20]
          +0.002*[#  21]
    |psi|^2 = 0.995
==== e(  26) =    15.40401 eV ==== 
     psi = 0.374*[#  22]+0.374*[#  25]+0.033*[#  28]+0.033*[#  29]+0.033*[#  30]
          +0.033*[#  32]+0.033*[#  33]+0.033*[#  34]+0.010*[#   9]+0.010*[#  12]
          +0.007*[#  23]+0.007*[#  24]+0.007*[#  26]+0.002*[#   6]+0.002*[#   7]
          +0.002*[#   8]
    |psi|^2 = 0.997
==== e(  27) =    16.24701 eV ==== 
     psi = 0.160*[#   2]+0.146*[#  27]+0.146*[#  31]+0.126*[#  15]+0.034*[#  19]
          +0.034*[#  20]+0.034*[#  21]+0.033*[#   6]+0.033*[#   7]+0.033*[#   8]
          +0.031*[#  28]+0.031*[#  29]+0.031*[#  30]+0.031*[#  32]+0.031*[#  33]
          +0.031*[#  34]+0.010*[#  14]+0.008*[#   1]+0.002*[#  23]+0.002*[#  24]
          +0.002*[#  26]
    |psi|^2 = 0.994
==== e(  28) =    20.46433 eV ==== 
     psi = 0.104*[#   6]+0.104*[#   7]+0.104*[#   8]+0.098*[#  19]+0.098*[#  20]
          +0.098*[#  21]+0.064*[#  27]+0.064*[#  31]+0.027*[#  15]+0.022*[#   2]
          +0.020*[#  28]+0.020*[#  29]+0.020*[#  30]+0.020*[#  32]+0.020*[#  33]
          +0.020*[#  34]+0.006*[#  22]+0.006*[#  25]+0.002*[#  23]+0.002*[#  24]
          +0.002*[#  26]+0.002*[#   9]+0.002*[#  12]+0.001*[#  14]
    |psi|^2 = 0.931
==== e(  29) =    23.12459 eV ==== 
     psi = 0.326*[#  15]+0.305*[#   2]+0.028*[#  28]+0.028*[#  29]+0.028*[#  30]
          +0.028*[#  32]+0.028*[#  33]+0.028*[#  34]+0.021*[#  19]+0.021*[#  20]
          +0.021*[#  21]+0.016*[#   6]+0.016*[#   7]+0.016*[#   8]+0.006*[#   1]
          +0.004*[#  14]+0.002*[#  23]+0.002*[#  24]+0.002*[#  26]+0.001*[#  27]
          +0.001*[#  31]
    |psi|^2 = 0.931
==== e(  30) =    26.54208 eV ==== 
     psi = 0.145*[#   6]+0.145*[#   7]+0.145*[#   8]+0.101*[#   2]+0.059*[#  19]
          +0.059*[#  20]+0.059*[#  21]+0.010*[#  15]+0.007*[#   1]+0.003*[#  28]
          +0.003*[#  29]+0.003*[#  30]+0.003*[#  32]+0.003*[#  33]+0.003*[#  34]
          +0.002*[#  23]+0.002*[#  24]+0.002*[#  26]+0.002*[#   3]+0.002*[#   4]
          +0.002*[#   5]
    |psi|^2 = 0.763
==== e(  31) =    26.81671 eV ==== 
     psi = 0.119*[#  15]+0.070*[#  19]+0.070*[#  20]+0.070*[#  21]+0.029*[#   2]
          +0.010*[#  14]+0.004*[#   1]+0.003*[#   6]+0.003*[#   7]+0.003*[#   8]
          +0.003*[#  23]+0.003*[#  24]+0.003*[#  26]+0.001*[#  28]+0.001*[#  29]
          +0.001*[#  30]+0.001*[#  32]+0.001*[#  33]+0.001*[#  34]+0.001*[#  27]
          +0.001*[#  31]
    |psi|^2 = 0.405
==== e(  32) =    29.56308 eV ==== 
     psi = 0.131*[#   6]+0.131*[#   7]+0.131*[#   8]+0.099*[#  19]+0.099*[#  20]
          +0.099*[#  21]+0.004*[#  28]+0.004*[#  29]+0.004*[#  30]+0.004*[#  32]
          +0.004*[#  33]+0.004*[#  34]+0.001*[#   3]+0.001*[#   4]+0.001*[#   5]
          
    |psi|^2 = 0.719
==== e(  33) =    30.94195 eV ==== 
     psi = 0.051*[#  19]+0.051*[#  20]+0.051*[#  21]+0.034*[#   6]+0.034*[#   7]
          +0.034*[#   8]+0.002*[#  23]+0.002*[#  24]+0.002*[#  26]+0.001*[#  16]
          +0.001*[#  17]+0.001*[#  18]
    |psi|^2 = 0.271
==== e(  34) =    30.96344 eV ==== 
     psi = 0.045*[#  19]+0.045*[#  20]+0.045*[#  21]+0.041*[#   6]+0.041*[#   7]
          +0.041*[#   8]+0.002*[#  23]+0.002*[#  24]+0.002*[#  26]+0.001*[#   3]
          +0.001*[#   4]+0.001*[#   5]+0.001*[#  16]+0.001*[#  17]+0.001*[#  18]
          
    |psi|^2 = 0.276
==== e(  35) =    33.39349 eV ==== 
     psi = 0.057*[#  15]+0.044*[#   2]+0.026*[#   6]+0.026*[#   7]+0.026*[#   8]
          +0.011*[#  19]+0.011*[#  20]+0.011*[#  21]+0.006*[#  14]+0.005*[#   1]
          +0.002*[#  27]+0.002*[#  31]
    |psi|^2 = 0.234

 k =   0.4166666667  0.0833333333 -0.2500000000
==== e(   1) =   -75.86413 eV ==== 
     psi = 0.944*[#   1]+0.009*[#   6]+0.009*[#   7]+0.009*[#   8]+0.007*[#   2]
          +0.006*[#  19]+0.006*[#  20]+0.006*[#  21]
    |psi|^2 = 1.000
==== e(   2) =   -71.95921 eV ==== 
     psi = 0.944*[#  14]+0.009*[#  19]+0.009*[#  20]+0.009*[#  21]+0.006*[#  15]
          +0.006*[#   6]+0.006*[#   7]+0.006*[#   8]
    |psi|^2 = 1.000
==== e(   3) =   -41.62768 eV ==== 
     psi = 0.329*[#   3]+0.329*[#   4]+0.329*[#   5]+0.002*[#  19]+0.002*[#  20]
          +0.002*[#  21]
    |psi|^2 = 0.998
==== e(   4) =   -41.53799 eV ==== 
     psi = 0.330*[#   3]+0.330*[#   4]+0.330*[#   5]+0.001*[#  19]+0.001*[#  20]
          +0.001*[#  21]+0.001*[#   2]
    |psi|^2 = 0.998
==== e(   5) =   -41.50288 eV ==== 
     psi = 0.329*[#   3]+0.329*[#   4]+0.329*[#   5]+0.003*[#   6]+0.003*[#   7]
          +0.003*[#   8]
    |psi|^2 = 0.998
==== e(   6) =   -37.80942 eV ==== 
     psi = 0.329*[#  16]+0.329*[#  17]+0.329*[#  18]+0.001*[#   6]+0.001*[#   7]
          +0.001*[#   8]+0.001*[#  15]
    |psi|^2 = 0.998
==== e(   7) =   -37.77625 eV ==== 
     psi = 0.329*[#  16]+0.329*[#  17]+0.329*[#  18]+0.002*[#   6]+0.002*[#   7]
          +0.002*[#   8]
    |psi|^2 = 0.998
==== e(   8) =   -37.77149 eV ==== 
     psi = 0.329*[#  16]+0.329*[#  17]+0.329*[#  18]+0.002*[#  19]+0.002*[#  20]
          +0.002*[#  21]
    |psi|^2 = 0.998
==== e(   9) =    -5.73860 eV ==== 
     psi = 0.334*[#  27]+0.334*[#  31]+0.041*[#   6]+0.041*[#   7]+0.041*[#   8]
          +0.041*[#  19]+0.041*[#  20]+0.041*[#  21]+0.034*[#   2]+0.032*[#  15]
          +0.006*[#  14]+0.005*[#   1]+0.001*[#   9]+0.001*[#  12]+0.001*[#  22]
          +0.001*[#  25]
    |psi|^2 = 1.000
==== e(  10) =    -5.22435 eV ==== 
     psi = 0.418*[#  27]+0.418*[#  31]+0.020*[#   6]+0.020*[#   7]+0.020*[#   8]
          +0.020*[#  19]+0.020*[#  20]+0.020*[#  21]+0.010*[#   9]+0.010*[#  12]
          +0.008*[#  22]+0.008*[#  25]+0.003*[#   2]+0.003*[#  15]
    |psi|^2 = 0.999
==== e(  11) =     6.87753 eV ==== 
     psi = 0.102*[#  28]+0.102*[#  29]+0.102*[#  30]+0.102*[#  32]+0.102*[#  33]
          +0.102*[#  34]+0.056*[#  15]+0.032*[#   9]+0.032*[#  12]+0.032*[#  10]
          +0.032*[#  11]+0.032*[#  13]+0.028*[#   2]+0.019*[#  19]+0.019*[#  20]
          +0.019*[#  21]+0.016*[#   6]+0.016*[#   7]+0.016*[#   8]+0.008*[#  23]
          +0.008*[#  24]+0.008*[#  26]+0.003*[#  22]+0.003*[#  25]+0.003*[#  14]
          +0.002*[#  27]+0.002*[#  31]
    |psi|^2 = 0.999
==== e(  12) =     7.31013 eV ==== 
     psi = 0.101*[#  28]+0.101*[#  29]+0.101*[#  30]+0.101*[#  32]+0.101*[#  33]
          +0.101*[#  34]+0.072*[#   2]+0.042*[#   9]+0.042*[#  12]+0.026*[#  15]
          +0.022*[#  27]+0.022*[#  31]+0.016*[#  22]+0.016*[#  25]+0.015*[#  10]
          +0.015*[#  11]+0.015*[#  13]+0.012*[#   6]+0.012*[#   7]+0.012*[#   8]
          +0.009*[#  23]+0.009*[#  24]+0.009*[#  26]+0.005*[#  19]+0.005*[#  20]
          +0.005*[#  21]+0.004*[#   1]+0.002*[#  14]
    |psi|^2 = 0.998
==== e(  13) =     7.92687 eV ==== 
     psi = 0.102*[#   9]+0.102*[#  12]+0.094*[#  28]+0.094*[#  29]+0.094*[#  30]
          +0.094*[#  32]+0.094*[#  33]+0.094*[#  34]+0.042*[#  10]+0.042*[#  11]
          +0.042*[#  13]+0.012*[#  19]+0.012*[#  20]+0.012*[#  21]+0.010*[#   6]
          +0.010*[#   7]+0.010*[#   8]+0.005*[#  23]+0.005*[#  24]+0.005*[#  26]
          +0.005*[#  22]+0.005*[#  25]+0.004*[#  15]+0.002*[#   2]
    |psi|^2 = 0.999
==== e(  14) =     8.23424 eV ==== 
     psi = 0.101*[#  28]+0.101*[#  29]+0.101*[#  30]+0.101*[#  32]+0.101*[#  33]
          +0.101*[#  34]+0.096*[#   9]+0.096*[#  12]+0.024*[#  10]+0.024*[#  11]
          +0.024*[#  13]+0.023*[#  22]+0.023*[#  25]+0.011*[#  19]+0.011*[#  20]
          +0.011*[#  21]+0.009*[#   2]+0.006*[#  23]+0.006*[#  24]+0.006*[#  26]
          +0.006*[#   6]+0.006*[#   7]+0.006*[#   8]+0.001*[#  27]+0.001*[#  31]
          
    |psi|^2 = 0.999
==== e(  15) =     8.69516 eV ==== 
     psi = 0.100*[#   9]+0.100*[#  12]+0.096*[#  28]+0.096*[#  29]+0.096*[#  30]
          +0.096*[#  32]+0.096*[#  33]+0.096*[#  34]+0.037*[#  22]+0.037*[#  25]
          +0.035*[#  10]+0.035*[#  11]+0.035*[#  13]+0.004*[#   2]+0.004*[#  23]
          +0.004*[#  24]+0.004*[#  26]+0.004*[#  15]+0.003*[#   6]+0.003*[#   7]
          +0.003*[#   8]+0.002*[#  27]+0.002*[#  31]+0.002*[#  19]+0.002*[#  20]
          +0.002*[#  21]
    |psi|^2 = 0.998
==== e(  16) =     9.14083 eV ==== 
     psi = 0.111*[#  28]+0.111*[#  29]+0.111*[#  30]+0.111*[#  32]+0.111*[#  33]
          +0.111*[#  34]+0.047*[#  10]+0.047*[#  11]+0.047*[#  13]+0.026*[#  22]
          +0.026*[#  25]+0.022*[#  23]+0.022*[#  24]+0.022*[#  26]+0.010*[#   9]
          +0.010*[#  12]+0.009*[#   6]+0.009*[#   7]+0.009*[#   8]+0.007*[#  19]
          +0.007*[#  20]+0.007*[#  21]
    |psi|^2 = 0.997
==== e(  17) =    10.52398 eV ==== 
     psi = 0.282*[#  10]+0.282*[#  11]+0.282*[#  13]+0.018*[#  28]+0.018*[#  29]
          +0.018*[#  30]+0.018*[#  32]+0.018*[#  33]+0.018*[#  34]+0.007*[#  15]
          +0.007*[#  23]+0.007*[#  24]+0.007*[#  26]+0.004*[#   9]+0.004*[#  12]
          +0.002*[#   2]+0.001*[#  19]+0.001*[#  20]+0.001*[#  21]
    |psi|^2 = 0.999
==== e(  18) =    11.07269 eV ==== 
     psi = 0.285*[#  10]+0.285*[#  11]+0.285*[#  13]+0.014*[#  28]+0.014*[#  29]
          +0.014*[#  30]+0.014*[#  32]+0.014*[#  33]+0.014*[#  34]+0.012*[#   9]
          +0.012*[#  12]+0.008*[#  22]+0.008*[#  25]+0.003*[#   2]+0.003*[#  23]
          +0.003*[#  24]+0.003*[#  26]+0.002*[#  15]+0.002*[#  19]+0.002*[#  20]
          +0.002*[#  21]+0.001*[#  27]+0.001*[#  31]
    |psi|^2 = 0.999
==== e(  19) =    11.18682 eV ==== 
     psi = 0.202*[#  10]+0.202*[#  11]+0.202*[#  13]+0.047*[#  28]+0.047*[#  29]
          +0.047*[#  30]+0.047*[#  32]+0.047*[#  33]+0.047*[#  34]+0.030*[#   9]
          +0.030*[#  12]+0.012*[#  22]+0.012*[#  25]+0.005*[#  15]+0.003*[#  23]
          +0.003*[#  24]+0.003*[#  26]+0.002*[#   6]+0.002*[#   7]+0.002*[#   8]
          +0.002*[#  27]+0.002*[#  31]
    |psi|^2 = 0.998
==== e(  20) =    11.83907 eV ==== 
     psi = 0.283*[#   9]+0.283*[#  12]+0.038*[#  28]+0.038*[#  29]+0.038*[#  30]
          +0.038*[#  32]+0.038*[#  33]+0.038*[#  34]+0.028*[#  22]+0.028*[#  25]
          +0.021*[#  15]+0.015*[#  27]+0.015*[#  31]+0.014*[#  10]+0.014*[#  11]
          +0.014*[#  13]+0.012*[#  23]+0.012*[#  24]+0.012*[#  26]+0.003*[#   6]
          +0.003*[#   7]+0.003*[#   8]+0.002*[#  19]+0.002*[#  20]+0.002*[#  21]
          
    |psi|^2 = 0.996
==== e(  21) =    12.24526 eV ==== 
     psi = 0.247*[#   9]+0.247*[#  12]+0.060*[#  28]+0.060*[#  29]+0.060*[#  30]
          +0.060*[#  32]+0.060*[#  33]+0.060*[#  34]+0.027*[#  22]+0.027*[#  25]
          +0.011*[#  10]+0.011*[#  11]+0.011*[#  13]+0.010*[#  27]+0.010*[#  31]
          +0.005*[#  23]+0.005*[#  24]+0.005*[#  26]+0.004*[#  19]+0.004*[#  20]
          +0.004*[#  21]+0.001*[#  15]+0.001*[#   6]+0.001*[#   7]+0.001*[#   8]
          
    |psi|^2 = 0.995
==== e(  22) =    13.55970 eV ==== 
     psi = 0.277*[#  23]+0.277*[#  24]+0.277*[#  26]+0.022*[#  28]+0.022*[#  29]
          +0.022*[#  30]+0.022*[#  32]+0.022*[#  33]+0.022*[#  34]+0.006*[#   9]
          +0.006*[#  12]+0.005*[#  22]+0.005*[#  25]+0.002*[#  10]+0.002*[#  11]
          +0.002*[#  13]+0.001*[#   2]
    |psi|^2 = 0.994
==== e(  23) =    13.67124 eV ==== 
     psi = 0.308*[#  23]+0.308*[#  24]+0.308*[#  26]+0.007*[#  28]+0.007*[#  29]
          +0.007*[#  30]+0.007*[#  32]+0.007*[#  33]+0.007*[#  34]+0.004*[#  10]
          +0.004*[#  11]+0.004*[#  13]+0.003*[#  22]+0.003*[#  25]+0.002*[#  15]
          +0.002*[#   9]+0.002*[#  12]
    |psi|^2 = 0.995
==== e(  24) =    14.30895 eV ==== 
     psi = 0.301*[#  23]+0.301*[#  24]+0.301*[#  26]+0.010*[#  28]+0.010*[#  29]
          +0.010*[#  30]+0.010*[#  32]+0.010*[#  33]+0.010*[#  34]+0.009*[#  22]
          +0.009*[#  25]+0.005*[#   2]+0.002*[#  27]+0.002*[#  31]+0.001*[#  10]
          +0.001*[#  11]+0.001*[#  13]
    |psi|^2 = 0.997
==== e(  25) =    15.12562 eV ==== 
     psi = 0.371*[#  22]+0.371*[#  25]+0.034*[#   2]+0.021*[#  28]+0.021*[#  29]
          +0.021*[#  30]+0.021*[#  32]+0.021*[#  33]+0.021*[#  34]+0.016*[#  27]
          +0.016*[#  31]+0.009*[#  23]+0.009*[#  24]+0.009*[#  26]+0.008*[#   9]
          +0.008*[#  12]+0.004*[#  19]+0.004*[#  20]+0.004*[#  21]+0.002*[#   6]
          +0.002*[#   7]+0.002*[#   8]
    |psi|^2 = 0.997
==== e(  26) =    15.43106 eV ==== 
     psi = 0.387*[#  22]+0.387*[#  25]+0.027*[#  28]+0.027*[#  29]+0.027*[#  30]
          +0.027*[#  32]+0.027*[#  33]+0.027*[#  34]+0.010*[#  27]+0.010*[#  31]
          +0.005*[#   9]+0.005*[#  12]+0.004*[#  23]+0.004*[#  24]+0.004*[#  26]
          +0.004*[#   6]+0.004*[#   7]+0.004*[#   8]
    |psi|^2 = 0.997
==== e(  27) =    18.29577 eV ==== 
     psi = 0.099*[#  27]+0.099*[#  31]+0.096*[#   2]+0.070*[#  15]+0.049*[#   6]
          +0.049*[#   7]+0.049*[#   8]+0.047*[#  19]+0.047*[#  20]+0.047*[#  21]
          +0.045*[#  28]+0.045*[#  29]+0.045*[#  30]+0.045*[#  32]+0.045*[#  33]
          +0.045*[#  34]+0.022*[#  22]+0.022*[#  25]+0.007*[#  14]+0.006*[#   1]
          +0.003*[#   9]+0.003*[#  12]
    |psi|^2 = 0.990
==== e(  28) =    21.62878 eV ==== 
     psi = 0.163*[#  15]+0.156*[#   2]+0.062*[#   6]+0.062*[#   7]+0.062*[#   8]
          +0.061*[#  19]+0.061*[#  20]+0.061*[#  21]+0.032*[#  28]+0.032*[#  29]
          +0.032*[#  30]+0.032*[#  32]+0.032*[#  33]+0.032*[#  34]+0.029*[#  27]
          +0.029*[#  31]+0.004*[#  22]+0.004*[#  25]+0.002*[#  23]+0.002*[#  24]
          +0.002*[#  26]+0.001*[#   9]+0.001*[#  12]
    |psi|^2 = 0.961
==== e(  29) =    23.55269 eV ==== 
     psi = 0.182*[#   2]+0.168*[#  15]+0.071*[#  19]+0.071*[#  20]+0.071*[#  21]
          +0.065*[#   6]+0.065*[#   7]+0.065*[#   8]+0.014*[#  28]+0.014*[#  29]
          +0.014*[#  30]+0.014*[#  32]+0.014*[#  33]+0.014*[#  34]+0.007*[#   1]
          +0.006*[#  27]+0.006*[#  31]+0.004*[#  14]+0.003*[#  23]+0.003*[#  24]
          +0.003*[#  26]
    |psi|^2 = 0.881
==== e(  30) =    24.60974 eV ==== 
     psi = 0.114*[#   6]+0.114*[#   7]+0.114*[#   8]+0.094*[#   2]+0.089*[#  19]
          +0.089*[#  20]+0.089*[#  21]+0.049*[#  15]+0.011*[#  28]+0.011*[#  29]
          +0.011*[#  30]+0.011*[#  32]+0.011*[#  33]+0.011*[#  34]+0.005*[#   1]
          +0.003*[#  23]+0.003*[#  24]+0.003*[#  26]+0.002*[#  14]+0.002*[#  27]
          +0.002*[#  31]
    |psi|^2 = 0.842
==== e(  31) =    25.36496 eV ==== 
     psi = 0.078*[#   6]+0.078*[#   7]+0.078*[#   8]+0.071*[#  15]+0.065*[#  19]
          +0.065*[#  20]+0.065*[#  21]+0.028*[#   2]+0.005*[#  23]+0.005*[#  24]
          +0.005*[#  26]+0.005*[#  14]+0.005*[#  28]+0.005*[#  29]+0.005*[#  30]
          +0.005*[#  32]+0.005*[#  33]+0.005*[#  34]+0.002*[#   1]+0.001*[#   3]
          +0.001*[#   4]+0.001*[#   5]+0.001*[#  10]+0.001*[#  11]+0.001*[#  13]
          
    |psi|^2 = 0.591
==== e(  32) =    28.34908 eV ==== 
     psi = 0.214*[#  15]+0.164*[#   2]+0.051*[#  19]+0.051*[#  20]+0.051*[#  21]
          +0.047*[#   6]+0.047*[#   7]+0.047*[#   8]+0.016*[#  14]+0.015*[#   1]
          +0.004*[#  27]+0.004*[#  31]+0.002*[#  28]+0.002*[#  29]+0.002*[#  30]
          +0.002*[#  32]+0.002*[#  33]+0.002*[#  34]
    |psi|^2 = 0.732
==== e(  33) =    29.52097 eV ==== 
     psi = 0.139*[#  19]+0.139*[#  20]+0.139*[#  21]+0.135*[#   6]+0.135*[#   7]
          +0.135*[#   8]+0.010*[#  27]+0.010*[#  31]+0.004*[#  28]+0.004*[#  29]
          +0.004*[#  30]+0.004*[#  32]+0.004*[#  33]+0.004*[#  34]+0.003*[#  15]
          +0.002*[#   3]+0.002*[#   4]+0.002*[#   5]+0.002*[#  16]+0.002*[#  17]
          +0.002*[#  18]+0.001*[#   2]
    |psi|^2 = 0.881
==== e(  34) =    30.99124 eV ==== 
     psi = 0.078*[#  19]+0.078*[#  20]+0.078*[#  21]+0.077*[#   6]+0.077*[#   7]
          +0.077*[#   8]+0.004*[#  15]+0.004*[#   2]+0.001*[#   3]+0.001*[#   4]
          +0.001*[#   5]+0.001*[#  16]+0.001*[#  17]+0.001*[#  18]+0.001*[#  23]
          +0.001*[#  24]+0.001*[#  26]+0.001*[#  28]+0.001*[#  29]+0.001*[#  30]
          +0.001*[#  32]+0.001*[#  33]+0.001*[#  34]
    |psi|^2 = 0.496
==== e(  35) =    32.49220 eV ==== 
     psi = 0.054*[#  19]+0.054*[#  20]+0.054*[#  21]+0.043*[#   6]+0.043*[#   7]
          +0.043*[#   8]+0.002*[#  15]+0.002*[#   2]
    |psi|^2 = 0.307

 k =  -0.8333333333  0.5000000000  0.1666666667
==== e(   1) =   -75.86473 eV ==== 
     psi = 0.970*[#   1]+0.009*[#   2]+0.003*[#  19]+0.003*[#  20]+0.003*[#  21]
          +0.002*[#   6]+0.002*[#   7]+0.002*[#   8]
    |psi|^2 = 1.000
==== e(   2) =   -71.95953 eV ==== 
     psi = 0.971*[#  14]+0.008*[#  15]+0.003*[#   6]+0.003*[#   7]+0.003*[#   8]
          +0.002*[#  19]+0.002*[#  20]+0.002*[#  21]
    |psi|^2 = 1.000
==== e(   3) =   -41.62792 eV ==== 
     psi = 0.330*[#   3]+0.330*[#   4]+0.330*[#   5]+0.001*[#   6]+0.001*[#   7]
          +0.001*[#   8]
    |psi|^2 = 0.998
==== e(   4) =   -41.56359 eV ==== 
     psi = 0.330*[#   3]+0.330*[#   4]+0.330*[#   5]
    |psi|^2 = 0.998
==== e(   5) =   -41.52235 eV ==== 
     psi = 0.330*[#   3]+0.330*[#   4]+0.330*[#   5]+0.002*[#   6]+0.002*[#   7]
          +0.002*[#   8]
    |psi|^2 = 0.998
==== e(   6) =   -37.83677 eV ==== 
     psi = 0.329*[#  16]+0.329*[#  17]+0.329*[#  18]+0.001*[#  19]+0.001*[#  20]
          +0.001*[#  21]
    |psi|^2 = 0.998
==== e(   7) =   -37.79385 eV ==== 
     psi = 0.330*[#  16]+0.330*[#  17]+0.330*[#  18]+0.001*[#  19]+0.001*[#  20]
          +0.001*[#  21]
    |psi|^2 = 0.998
==== e(   8) =   -37.77333 eV ==== 
     psi = 0.330*[#  16]+0.330*[#  17]+0.330*[#  18]
    |psi|^2 = 0.998
==== e(   9) =    -5.33693 eV ==== 
     psi = 0.395*[#  27]+0.395*[#  31]+0.026*[#  19]+0.026*[#  20]+0.026*[#  21]
          +0.025*[#   6]+0.025*[#   7]+0.025*[#   8]+0.011*[#   2]+0.010*[#  15]
          +0.008*[#   9]+0.008*[#  12]+0.006*[#  22]+0.006*[#  25]+0.001*[#   1]
          +0.001*[#  14]
    |psi|^2 = 0.999
==== e(  10) =    -5.18431 eV ==== 
     psi = 0.427*[#  27]+0.427*[#  31]+0.018*[#   6]+0.018*[#   7]+0.018*[#   8]
          +0.016*[#  19]+0.016*[#  20]+0.016*[#  21]+0.011*[#   9]+0.011*[#  12]
          +0.010*[#  22]+0.010*[#  25]
    |psi|^2 = 0.999
==== e(  11) =     6.82870 eV ==== 
     psi = 0.100*[#  28]+0.100*[#  29]+0.100*[#  30]+0.100*[#  32]+0.100*[#  33]
          +0.100*[#  34]+0.050*[#   2]+0.039*[#   9]+0.039*[#  12]+0.026*[#  15]
          +0.026*[#  19]+0.026*[#  20]+0.026*[#  21]+0.020*[#  10]+0.020*[#  11]
          +0.020*[#  13]+0.015*[#   6]+0.015*[#   7]+0.015*[#   8]+0.010*[#  22]
          +0.010*[#  25]+0.007*[#  27]+0.007*[#  31]+0.006*[#  23]+0.006*[#  24]
          +0.006*[#  26]+0.003*[#   1]+0.002*[#  14]
    |psi|^2 = 0.999
==== e(  12) =     6.97305 eV ==== 
     psi = 0.107*[#  28]+0.107*[#  29]+0.107*[#  30]+0.107*[#  32]+0.107*[#  33]
          +0.107*[#  34]+0.054*[#  15]+0.041*[#   2]+0.035*[#  10]+0.035*[#  11]
          +0.035*[#  13]+0.017*[#   6]+0.017*[#   7]+0.017*[#   8]+0.014*[#   9]
          +0.014*[#  12]+0.012*[#  23]+0.012*[#  24]+0.012*[#  26]+0.011*[#  19]
          +0.011*[#  20]+0.011*[#  21]+0.002*[#  22]+0.002*[#  25]+0.002*[#  14]
          
    |psi|^2 = 0.999
==== e(  13) =     7.79538 eV ==== 
     psi = 0.099*[#  28]+0.099*[#  29]+0.099*[#  30]+0.099*[#  32]+0.099*[#  33]
          +0.099*[#  34]+0.090*[#   9]+0.090*[#  12]+0.031*[#  10]+0.031*[#  11]
          +0.031*[#  13]+0.018*[#  19]+0.018*[#  20]+0.018*[#  21]+0.014*[#   6]
          +0.014*[#   7]+0.014*[#   8]+0.007*[#  23]+0.007*[#  24]+0.007*[#  26]
          +0.002*[#  15]+0.002*[#  22]+0.002*[#  25]
    |psi|^2 = 0.999
==== e(  14) =     8.19159 eV ==== 
     psi = 0.118*[#   9]+0.118*[#  12]+0.102*[#  28]+0.102*[#  29]+0.102*[#  30]
          +0.102*[#  32]+0.102*[#  33]+0.102*[#  34]+0.036*[#  22]+0.036*[#  25]
          +0.012*[#   6]+0.012*[#   7]+0.012*[#   8]+0.007*[#  10]+0.007*[#  11]
          +0.007*[#  13]+0.003*[#   2]+0.002*[#  19]+0.002*[#  20]+0.002*[#  21]
          +0.002*[#  23]+0.002*[#  24]+0.002*[#  26]+0.001*[#  15]+0.001*[#  27]
          +0.001*[#  31]
    |psi|^2 = 0.998
==== e(  15) =     8.44549 eV ==== 
     psi = 0.106*[#  28]+0.106*[#  29]+0.106*[#  30]+0.106*[#  32]+0.106*[#  33]
          +0.106*[#  34]+0.067*[#   9]+0.067*[#  12]+0.044*[#  22]+0.044*[#  25]
          +0.024*[#  10]+0.024*[#  11]+0.024*[#  13]+0.012*[#   2]+0.008*[#   6]
          +0.008*[#   7]+0.008*[#   8]+0.005*[#  23]+0.005*[#  24]+0.005*[#  26]
          +0.003*[#  19]+0.003*[#  20]+0.003*[#  21]+0.003*[#  15]+0.002*[#  27]
          +0.002*[#  31]
    |psi|^2 = 0.998
==== e(  16) =     8.51312 eV ==== 
     psi = 0.111*[#  28]+0.111*[#  29]+0.111*[#  30]+0.111*[#  32]+0.111*[#  33]
          +0.111*[#  34]+0.045*[#  10]+0.045*[#  11]+0.045*[#  13]+0.024*[#  23]
          +0.024*[#  24]+0.024*[#  26]+0.015*[#   6]+0.015*[#   7]+0.015*[#   8]
          +0.013*[#  19]+0.013*[#  20]+0.013*[#  21]+0.008*[#  22]+0.008*[#  25]
          +0.007*[#   9]+0.007*[#  12]+0.003*[#  15]
    |psi|^2 = 0.998
==== e(  17) =    10.51303 eV ==== 
     psi = 0.274*[#  10]+0.274*[#  11]+0.274*[#  13]+0.022*[#  28]+0.022*[#  29]
          +0.022*[#  30]+0.022*[#  32]+0.022*[#  33]+0.022*[#  34]+0.011*[#   9]
          +0.011*[#  12]+0.006*[#  22]+0.006*[#  25]+0.002*[#  23]+0.002*[#  24]
          +0.002*[#  26]+0.001*[#   6]+0.001*[#   7]+0.001*[#   8]
    |psi|^2 = 0.999
==== e(  18) =    11.04570 eV ==== 
     psi = 0.272*[#  10]+0.272*[#  11]+0.272*[#  13]+0.060*[#   9]+0.060*[#  12]
          +0.007*[#  28]+0.007*[#  29]+0.007*[#  30]+0.007*[#  32]+0.007*[#  33]
          +0.007*[#  34]+0.006*[#  22]+0.006*[#  25]+0.002*[#   2]+0.002*[#  23]
          +0.002*[#  24]+0.002*[#  26]
    |psi|^2 = 0.999
==== e(  19) =    11.30271 eV ==== 
     psi = 0.232*[#  10]+0.232*[#  11]+0.232*[#  13]+0.042*[#  28]+0.042*[#  29]
          +0.042*[#  30]+0.042*[#  32]+0.042*[#  33]+0.042*[#  34]+0.011*[#   9]
          +0.011*[#  12]+0.007*[#   2]+0.003*[#  15]+0.003*[#  23]+0.003*[#  24]
          +0.003*[#  26]+0.002*[#  22]+0.002*[#  25]+0.001*[#   6]+0.001*[#   7]
          +0.001*[#   8]+0.001*[#  19]+0.001*[#  20]+0.001*[#  21]
    |psi|^2 = 0.998
==== e(  20) =    11.99074 eV ==== 
     psi = 0.269*[#   9]+0.269*[#  12]+0.038*[#  28]+0.038*[#  29]+0.038*[#  30]
          +0.038*[#  32]+0.038*[#  33]+0.038*[#  34]+0.036*[#  10]+0.036*[#  11]
          +0.036*[#  13]+0.026*[#  22]+0.026*[#  25]+0.018*[#  15]+0.016*[#  27]
          +0.016*[#  31]+0.007*[#  19]+0.007*[#  20]+0.007*[#  21]
    |psi|^2 = 0.996
==== e(  21) =    12.19697 eV ==== 
     psi = 0.271*[#   9]+0.271*[#  12]+0.046*[#  28]+0.046*[#  29]+0.046*[#  30]
          +0.046*[#  32]+0.046*[#  33]+0.046*[#  34]+0.023*[#  22]+0.023*[#  25]
          +0.016*[#  10]+0.016*[#  11]+0.016*[#  13]+0.013*[#  27]+0.013*[#  31]
          +0.010*[#  23]+0.010*[#  24]+0.010*[#  26]+0.008*[#  15]+0.005*[#  19]
          +0.005*[#  20]+0.005*[#  21]
    |psi|^2 = 0.995
==== e(  22) =    13.47579 eV ==== 
     psi = 0.280*[#  23]+0.280*[#  24]+0.280*[#  26]+0.021*[#  28]+0.021*[#  29]
          +0.021*[#  30]+0.021*[#  32]+0.021*[#  33]+0.021*[#  34]+0.005*[#   9]
          +0.005*[#  12]+0.003*[#  10]+0.003*[#  11]+0.003*[#  13]+0.003*[#  22]
          +0.003*[#  25]+0.001*[#   2]
    |psi|^2 = 0.992
==== e(  23) =    13.97924 eV ==== 
     psi = 0.310*[#  23]+0.310*[#  24]+0.310*[#  26]+0.010*[#  28]+0.010*[#  29]
          +0.010*[#  30]+0.010*[#  32]+0.010*[#  33]+0.010*[#  34]+0.002*[#   2]
          +0.001*[#  10]+0.001*[#  11]+0.001*[#  13]
    |psi|^2 = 0.998
==== e(  24) =    14.44597 eV ==== 
     psi = 0.314*[#  23]+0.314*[#  24]+0.314*[#  26]+0.008*[#  28]+0.008*[#  29]
          +0.008*[#  30]+0.008*[#  32]+0.008*[#  33]+0.008*[#  34]+0.002*[#  15]
          
    |psi|^2 = 0.998
==== e(  25) =    15.26284 eV ==== 
     psi = 0.402*[#  22]+0.402*[#  25]+0.028*[#   2]+0.020*[#  28]+0.020*[#  29]
          +0.020*[#  30]+0.020*[#  32]+0.020*[#  33]+0.020*[#  34]+0.008*[#  27]
          +0.008*[#  31]+0.008*[#   9]+0.008*[#  12]+0.002*[#   6]+0.002*[#   7]
          +0.002*[#   8]+0.002*[#  23]+0.002*[#  24]+0.002*[#  26]
    |psi|^2 = 0.998
==== e(  26) =    15.46765 eV ==== 
     psi = 0.396*[#  22]+0.396*[#  25]+0.023*[#  28]+0.023*[#  29]+0.023*[#  30]
          +0.023*[#  32]+0.023*[#  33]+0.023*[#  34]+0.015*[#  27]+0.015*[#  31]
          +0.005*[#   6]+0.005*[#   7]+0.005*[#   8]+0.004*[#   9]+0.004*[#  12]
          +0.003*[#  23]+0.003*[#  24]+0.003*[#  26]
    |psi|^2 = 0.997
==== e(  27) =    20.63311 eV ==== 
     psi = 0.202*[#   2]+0.089*[#  15]+0.052*[#   6]+0.052*[#   7]+0.052*[#   8]
          +0.052*[#  19]+0.052*[#  20]+0.052*[#  21]+0.046*[#  27]+0.046*[#  31]
          +0.041*[#  28]+0.041*[#  29]+0.041*[#  30]+0.041*[#  32]+0.041*[#  33]
          +0.041*[#  34]+0.011*[#  22]+0.011*[#  25]+0.002*[#   9]+0.002*[#  12]
          +0.001*[#  23]+0.001*[#  24]+0.001*[#  26]
    |psi|^2 = 0.978
==== e(  28) =    22.49174 eV ==== 
     psi = 0.119*[#   6]+0.119*[#   7]+0.119*[#   8]+0.117*[#  19]+0.117*[#  20]
          +0.117*[#  21]+0.028*[#  27]+0.028*[#  31]+0.017*[#  28]+0.017*[#  29]
          +0.017*[#  30]+0.017*[#  32]+0.017*[#  33]+0.017*[#  34]+0.005*[#  23]
          +0.005*[#  24]+0.005*[#  26]+0.003*[#  22]+0.003*[#  25]+0.001*[#  10]
          +0.001*[#  11]+0.001*[#  13]
    |psi|^2 = 0.895
==== e(  29) =    22.66828 eV ==== 
     psi = 0.374*[#   2]+0.345*[#  15]+0.028*[#  28]+0.028*[#  29]+0.028*[#  30]
          +0.028*[#  32]+0.028*[#  33]+0.028*[#  34]+0.015*[#   6]+0.015*[#   7]
          +0.015*[#   8]+0.008*[#   1]+0.007*[#  19]+0.007*[#  20]+0.007*[#  21]
          +0.002*[#  14]+0.002*[#  27]+0.002*[#  31]+0.001*[#  22]+0.001*[#  25]
          
    |psi|^2 = 0.973
==== e(  30) =    24.39619 eV ==== 
     psi = 0.109*[#   6]+0.109*[#   7]+0.109*[#   8]+0.097*[#  19]+0.097*[#  20]
          +0.097*[#  21]+0.017*[#   2]+0.010*[#  28]+0.010*[#  29]+0.010*[#  30]
          +0.010*[#  32]+0.010*[#  33]+0.010*[#  34]+0.005*[#  15]+0.002*[#  23]
          +0.002*[#  24]+0.002*[#  26]+0.002*[#  10]+0.002*[#  11]+0.002*[#  13]
          
    |psi|^2 = 0.717
==== e(  31) =    24.69047 eV ==== 
     psi = 0.122*[#  19]+0.122*[#  20]+0.122*[#  21]+0.098*[#   6]+0.098*[#   7]
          +0.098*[#   8]+0.075*[#   2]+0.012*[#  28]+0.012*[#  29]+0.012*[#  30]
          +0.012*[#  32]+0.012*[#  33]+0.012*[#  34]+0.006*[#  23]+0.006*[#  24]
          +0.006*[#  26]+0.005*[#   1]
    |psi|^2 = 0.834
==== e(  32) =    24.95872 eV ==== 
     psi = 0.383*[#  15]+0.134*[#   2]+0.068*[#   6]+0.068*[#   7]+0.068*[#   8]
          +0.037*[#  19]+0.037*[#  20]+0.037*[#  21]+0.017*[#  14]+0.009*[#   1]
          +0.007*[#  28]+0.007*[#  29]+0.007*[#  30]+0.007*[#  32]+0.007*[#  33]
          +0.007*[#  34]+0.005*[#  27]+0.005*[#  31]
    |psi|^2 = 0.914
==== e(  33) =    29.25709 eV ==== 
     psi = 0.140*[#  19]+0.140*[#  20]+0.140*[#  21]+0.136*[#   6]+0.136*[#   7]
          +0.136*[#   8]+0.013*[#  27]+0.013*[#  31]+0.003*[#  28]+0.003*[#  29]
          +0.003*[#  30]+0.003*[#  32]+0.003*[#  33]+0.003*[#  34]+0.002*[#   3]
          +0.002*[#   4]+0.002*[#   5]+0.002*[#  16]+0.002*[#  17]+0.002*[#  18]
          
    |psi|^2 = 0.881
==== e(  34) =    30.08337 eV ==== 
     psi = 0.140*[#  19]+0.140*[#  20]+0.140*[#  21]+0.127*[#   6]+0.127*[#   7]
          +0.127*[#   8]+0.005*[#  27]+0.005*[#  31]+0.004*[#  28]+0.004*[#  29]
          +0.004*[#  30]+0.004*[#  32]+0.004*[#  33]+0.004*[#  34]+0.002*[#  15]
          +0.002*[#   3]+0.002*[#   4]+0.002*[#   5]+0.002*[#   2]+0.002*[#  16]
          +0.002*[#  17]+0.002*[#  18]
    |psi|^2 = 0.853
==== e(  35) =    32.51224 eV ==== 
     psi = 0.027*[#  19]+0.027*[#  20]+0.027*[#  21]+0.020*[#   6]+0.020*[#   7]
          +0.020*[#   8]+0.003*[#  28]+0.003*[#  29]+0.003*[#  30]+0.003*[#  32]
          +0.003*[#  33]+0.003*[#  34]
    |psi|^2 = 0.159

 k =  -0.5833333333  0.4166666667  0.0833333333
==== e(   1) =   -75.86500 eV ==== 
     psi = 0.969*[#   1]+0.009*[#   2]+0.004*[#  19]+0.004*[#  20]+0.004*[#  21]
          +0.002*[#   6]+0.002*[#   7]+0.002*[#   8]
    |psi|^2 = 1.000
==== e(   2) =   -71.95960 eV ==== 
     psi = 0.970*[#  14]+0.008*[#  15]+0.004*[#   6]+0.004*[#   7]+0.004*[#   8]
          +0.002*[#  19]+0.002*[#  20]+0.002*[#  21]
    |psi|^2 = 1.000
==== e(   3) =   -41.63055 eV ==== 
     psi = 0.329*[#   3]+0.329*[#   4]+0.329*[#   5]+0.002*[#   6]+0.002*[#   7]
          +0.002*[#   8]
    |psi|^2 = 0.998
==== e(   4) =   -41.56006 eV ==== 
     psi = 0.330*[#   3]+0.330*[#   4]+0.330*[#   5]
    |psi|^2 = 0.998
==== e(   5) =   -41.52199 eV ==== 
     psi = 0.330*[#   3]+0.330*[#   4]+0.330*[#   5]+0.002*[#   6]+0.002*[#   7]
          +0.002*[#   8]
    |psi|^2 = 0.998
==== e(   6) =   -37.83318 eV ==== 
     psi = 0.329*[#  16]+0.329*[#  17]+0.329*[#  18]
    |psi|^2 = 0.998
==== e(   7) =   -37.79343 eV ==== 
     psi = 0.330*[#  16]+0.330*[#  17]+0.330*[#  18]+0.001*[#  19]+0.001*[#  20]
          +0.001*[#  21]
    |psi|^2 = 0.998
==== e(   8) =   -37.77640 eV ==== 
     psi = 0.329*[#  16]+0.329*[#  17]+0.329*[#  18]+0.001*[#  19]+0.001*[#  20]
[...]
          +0.087*[#  32]+0.087*[#  33]+0.087*[#  34]+0.011*[#  15]+0.007*[#  23]
          +0.007*[#  24]+0.007*[#  26]+0.004*[#  10]+0.004*[#  11]+0.004*[#  13]
          +0.003*[#   6]+0.003*[#   7]+0.003*[#   8]+0.002*[#   9]+0.002*[#  12]
          +0.001*[#  27]+0.001*[#  31]
    |psi|^2 = 0.999
==== e(  14) =     8.58178 eV ==== 
     psi = 0.099*[#  28]+0.099*[#  29]+0.099*[#  30]+0.099*[#  32]+0.099*[#  33]
          +0.099*[#  34]+0.061*[#  22]+0.061*[#  25]+0.058*[#  23]+0.058*[#  24]
          +0.058*[#  26]+0.019*[#   9]+0.019*[#  12]+0.013*[#   2]+0.007*[#  10]
          +0.007*[#  11]+0.007*[#  13]+0.005*[#  19]+0.005*[#  20]+0.005*[#  21]
          +0.005*[#   6]+0.005*[#   7]+0.005*[#   8]+0.002*[#  27]+0.002*[#  31]
          
    |psi|^2 = 0.998
==== e(  15) =     8.58968 eV ==== 
     psi = 0.121*[#  23]+0.121*[#  24]+0.121*[#  26]+0.087*[#  28]+0.087*[#  29]
          +0.087*[#  30]+0.087*[#  32]+0.087*[#  33]+0.087*[#  34]+0.011*[#  10]
          +0.011*[#  11]+0.011*[#  13]+0.011*[#  19]+0.011*[#  20]+0.011*[#  21]
          +0.010*[#   9]+0.010*[#  12]+0.008*[#   6]+0.008*[#   7]+0.008*[#   8]
          +0.003*[#  15]
    |psi|^2 = 0.998
==== e(  16) =     9.23280 eV ==== 
     psi = 0.131*[#  28]+0.131*[#  29]+0.131*[#  30]+0.131*[#  32]+0.131*[#  33]
          +0.131*[#  34]+0.050*[#   9]+0.050*[#  12]+0.019*[#  10]+0.019*[#  11]
          +0.019*[#  13]+0.010*[#  19]+0.010*[#  20]+0.010*[#  21]+0.005*[#   6]
          +0.005*[#   7]+0.005*[#   8]+0.002*[#   2]
    |psi|^2 = 0.997
==== e(  17) =    10.58536 eV ==== 
     psi = 0.270*[#  23]+0.270*[#  24]+0.270*[#  26]+0.024*[#  28]+0.024*[#  29]
          +0.024*[#  30]+0.024*[#  32]+0.024*[#  33]+0.024*[#  34]+0.007*[#  10]
          +0.007*[#  11]+0.007*[#  13]+0.007*[#   9]+0.007*[#  12]+0.003*[#  22]
          +0.003*[#  25]+0.002*[#  19]+0.002*[#  20]+0.002*[#  21]
    |psi|^2 = 0.998
==== e(  18) =    10.84801 eV ==== 
     psi = 0.228*[#  23]+0.228*[#  24]+0.228*[#  26]+0.032*[#  22]+0.032*[#  25]
          +0.027*[#  28]+0.027*[#  29]+0.027*[#  30]+0.027*[#  32]+0.027*[#  33]
          +0.027*[#  34]+0.018*[#   2]+0.016*[#  10]+0.016*[#  11]+0.016*[#  13]
          +0.007*[#  27]+0.007*[#  31]+0.002*[#  19]+0.002*[#  20]+0.002*[#  21]
          
    |psi|^2 = 0.997
==== e(  19) =    11.19346 eV ==== 
     psi = 0.229*[#  23]+0.229*[#  24]+0.229*[#  26]+0.033*[#  28]+0.033*[#  29]
          +0.033*[#  30]+0.033*[#  32]+0.033*[#  33]+0.033*[#  34]+0.033*[#  22]
          +0.033*[#  25]+0.010*[#   9]+0.010*[#  12]+0.006*[#  10]+0.006*[#  11]
          +0.006*[#  13]+0.004*[#  15]
    |psi|^2 = 0.999
==== e(  20) =    11.70596 eV ==== 
     psi = 0.301*[#  22]+0.301*[#  25]+0.033*[#  28]+0.033*[#  29]+0.033*[#  30]
          +0.033*[#  32]+0.033*[#  33]+0.033*[#  34]+0.027*[#   9]+0.027*[#  12]
          +0.020*[#  27]+0.020*[#  31]+0.016*[#  23]+0.016*[#  24]+0.016*[#  26]
          +0.009*[#   6]+0.009*[#   7]+0.009*[#   8]+0.006*[#   2]+0.005*[#  10]
          +0.005*[#  11]+0.005*[#  13]+0.001*[#   1]
    |psi|^2 = 0.995
==== e(  21) =    12.26824 eV ==== 
     psi = 0.233*[#  22]+0.233*[#  25]+0.064*[#  28]+0.064*[#  29]+0.064*[#  30]
          +0.064*[#  32]+0.064*[#  33]+0.064*[#  34]+0.022*[#   9]+0.022*[#  12]
          +0.018*[#  23]+0.018*[#  24]+0.018*[#  26]+0.010*[#  10]+0.010*[#  11]
          +0.010*[#  13]+0.004*[#   6]+0.004*[#   7]+0.004*[#   8]+0.002*[#  15]
          
    |psi|^2 = 0.996
==== e(  22) =    13.57331 eV ==== 
     psi = 0.280*[#  10]+0.280*[#  11]+0.280*[#  13]+0.018*[#  28]+0.018*[#  29]
          +0.018*[#  30]+0.018*[#  32]+0.018*[#  33]+0.018*[#  34]+0.010*[#  23]
          +0.010*[#  24]+0.010*[#  26]+0.006*[#  22]+0.006*[#  25]+0.005*[#  15]
          
    |psi|^2 = 0.993
==== e(  23) =    13.70364 eV ==== 
     psi = 0.305*[#  10]+0.305*[#  11]+0.305*[#  13]+0.010*[#  23]+0.010*[#  24]
          +0.010*[#  26]+0.006*[#  28]+0.006*[#  29]+0.006*[#  30]+0.006*[#  32]
          +0.006*[#  33]+0.006*[#  34]+0.003*[#   9]+0.003*[#  12]+0.003*[#   2]
          +0.002*[#  22]+0.002*[#  25]+0.001*[#  27]+0.001*[#  31]
    |psi|^2 = 0.994
==== e(  24) =    14.34964 eV ==== 
     psi = 0.299*[#  10]+0.299*[#  11]+0.299*[#  13]+0.015*[#  28]+0.015*[#  29]
          +0.015*[#  30]+0.015*[#  32]+0.015*[#  33]+0.015*[#  34]+0.001*[#  23]
          +0.001*[#  24]+0.001*[#  26]
    |psi|^2 = 0.997
==== e(  25) =    14.97838 eV ==== 
     psi = 0.380*[#   9]+0.380*[#  12]+0.038*[#  27]+0.038*[#  31]+0.027*[#  15]
          +0.012*[#  28]+0.012*[#  29]+0.012*[#  30]+0.012*[#  32]+0.012*[#  33]
          +0.012*[#  34]+0.010*[#  19]+0.010*[#  20]+0.010*[#  21]+0.006*[#  22]
          +0.006*[#  25]+0.004*[#   6]+0.004*[#   7]+0.004*[#   8]+0.002*[#  14]
          +0.001*[#  10]+0.001*[#  11]+0.001*[#  13]
    |psi|^2 = 0.996
==== e(  26) =    15.35729 eV ==== 
     psi = 0.394*[#   9]+0.394*[#  12]+0.027*[#  28]+0.027*[#  29]+0.027*[#  30]
          +0.027*[#  32]+0.027*[#  33]+0.027*[#  34]+0.007*[#  27]+0.007*[#  31]
          +0.004*[#  19]+0.004*[#  20]+0.004*[#  21]+0.003*[#  22]+0.003*[#  25]
          +0.003*[#  10]+0.003*[#  11]+0.003*[#  13]
    |psi|^2 = 0.996
==== e(  27) =    19.61068 eV ==== 
     psi = 0.230*[#  15]+0.059*[#  27]+0.059*[#  31]+0.051*[#  19]+0.051*[#  20]
          +0.051*[#  21]+0.049*[#  28]+0.049*[#  29]+0.049*[#  30]+0.049*[#  32]
          +0.049*[#  33]+0.049*[#  34]+0.040*[#   6]+0.040*[#   7]+0.040*[#   8]
          +0.031*[#   9]+0.031*[#  12]+0.004*[#  14]
    |psi|^2 = 0.986
==== e(  28) =    19.81258 eV ==== 
     psi = 0.209*[#   2]+0.072*[#  27]+0.072*[#  31]+0.060*[#   6]+0.060*[#   7]
          +0.060*[#   8]+0.050*[#  19]+0.050*[#  20]+0.050*[#  21]+0.044*[#  28]
          +0.044*[#  29]+0.044*[#  30]+0.044*[#  32]+0.044*[#  33]+0.044*[#  34]
          +0.007*[#  22]+0.007*[#  25]+0.006*[#   1]+0.003*[#   9]+0.003*[#  12]
          
    |psi|^2 = 0.981
==== e(  29) =    24.62537 eV ==== 
     psi = 0.165*[#  15]+0.086*[#  19]+0.086*[#  20]+0.086*[#  21]+0.048*[#   6]
          +0.048*[#   7]+0.048*[#   8]+0.011*[#  14]+0.007*[#  28]+0.007*[#  29]
          +0.007*[#  30]+0.007*[#  32]+0.007*[#  33]+0.007*[#  34]+0.004*[#  10]
          +0.004*[#  11]+0.004*[#  13]+0.002*[#  27]+0.002*[#  31]
    |psi|^2 = 0.641
==== e(  30) =    24.83567 eV ==== 
     psi = 0.122*[#   2]+0.071*[#  19]+0.071*[#  20]+0.071*[#  21]+0.066*[#   6]
          +0.066*[#   7]+0.066*[#   8]+0.007*[#   1]+0.007*[#  28]+0.007*[#  29]
          +0.007*[#  30]+0.007*[#  32]+0.007*[#  33]+0.007*[#  34]+0.006*[#  10]
          +0.006*[#  11]+0.006*[#  13]+0.001*[#  16]+0.001*[#  17]+0.001*[#  18]
          +0.001*[#  27]+0.001*[#  31]
    |psi|^2 = 0.606
==== e(  31) =    26.32702 eV ==== 
     psi = 0.363*[#  15]+0.117*[#   6]+0.117*[#   7]+0.117*[#   8]+0.028*[#  14]
          +0.009*[#  19]+0.009*[#  20]+0.009*[#  21]+0.004*[#  27]+0.004*[#  31]
          +0.003*[#  28]+0.003*[#  29]+0.003*[#  30]+0.003*[#  32]+0.003*[#  33]
          +0.003*[#  34]+0.001*[#  10]+0.001*[#  11]+0.001*[#  13]
    |psi|^2 = 0.804
==== e(  32) =    26.49709 eV ==== 
     psi = 0.445*[#   2]+0.103*[#  19]+0.103*[#  20]+0.103*[#  21]+0.028*[#   1]
          +0.010*[#   6]+0.010*[#   7]+0.010*[#   8]+0.003*[#  28]+0.003*[#  29]
          +0.003*[#  30]+0.003*[#  32]+0.003*[#  33]+0.003*[#  34]+0.003*[#  27]
          +0.003*[#  31]
    |psi|^2 = 0.841
==== e(  33) =    30.26024 eV ==== 
     psi = 0.180*[#  19]+0.180*[#  20]+0.180*[#  21]+0.059*[#   6]+0.059*[#   7]
          +0.059*[#   8]+0.005*[#  28]+0.005*[#  29]+0.005*[#  30]+0.005*[#  32]
          +0.005*[#  33]+0.005*[#  34]+0.002*[#  16]+0.002*[#  17]+0.002*[#  18]
          
    |psi|^2 = 0.761
==== e(  34) =    30.45096 eV ==== 
     psi = 0.178*[#   6]+0.178*[#   7]+0.178*[#   8]+0.051*[#  19]+0.051*[#  20]
          +0.051*[#  21]+0.004*[#  28]+0.004*[#  29]+0.004*[#  30]+0.004*[#  32]
          +0.004*[#  33]+0.004*[#  34]+0.002*[#   3]+0.002*[#   4]+0.002*[#   5]
          +0.001*[#  27]+0.001*[#  31]
    |psi|^2 = 0.727
==== e(  35) =    31.91769 eV ==== 
     psi = 0.075*[#   6]+0.075*[#   7]+0.075*[#   8]+0.009*[#  19]+0.009*[#  20]
          +0.009*[#  21]+0.003*[#  28]+0.003*[#  29]+0.003*[#  30]+0.003*[#  32]
          +0.003*[#  33]+0.003*[#  34]
    |psi|^2 = 0.273

 k =  -0.2500000000 -0.2500000000 -0.2500000000
==== e(   1) =   -75.86063 eV ==== 
     psi = 0.907*[#  14]+0.028*[#   6]+0.028*[#   7]+0.028*[#   8]+0.003*[#  15]
          
    |psi|^2 = 1.000
==== e(   2) =   -71.95671 eV ==== 
     psi = 0.907*[#   1]+0.029*[#  19]+0.029*[#  20]+0.029*[#  21]+0.003*[#   2]
          
    |psi|^2 = 1.000
==== e(   3) =   -41.64344 eV ==== 
     psi = 0.329*[#  16]+0.329*[#  17]+0.329*[#  18]+0.003*[#   2]+0.002*[#  19]
          +0.002*[#  20]+0.002*[#  21]
    |psi|^2 = 0.998
==== e(   4) =   -41.46660 eV ==== 
     psi = 0.328*[#  16]+0.328*[#  17]+0.328*[#  18]+0.005*[#  19]+0.005*[#  20]
          +0.005*[#  21]
    |psi|^2 = 0.999
==== e(   5) =   -41.46659 eV ==== 
     psi = 0.328*[#  16]+0.328*[#  17]+0.328*[#  18]+0.005*[#  19]+0.005*[#  20]
          +0.005*[#  21]
    |psi|^2 = 0.999
==== e(   6) =   -37.79312 eV ==== 
     psi = 0.329*[#   3]+0.329*[#   4]+0.329*[#   5]+0.003*[#  15]+0.002*[#   6]
          +0.002*[#   7]+0.002*[#   8]
    |psi|^2 = 0.998
==== e(   7) =   -37.73638 eV ==== 
     psi = 0.328*[#   3]+0.328*[#   4]+0.328*[#   5]+0.004*[#   6]+0.004*[#   7]
          +0.004*[#   8]
    |psi|^2 = 0.999
==== e(   8) =   -37.73638 eV ==== 
     psi = 0.328*[#   3]+0.328*[#   4]+0.328*[#   5]+0.004*[#   6]+0.004*[#   7]
          +0.004*[#   8]
    |psi|^2 = 0.999
==== e(   9) =    -5.85913 eV ==== 
     psi = 0.321*[#  27]+0.321*[#  31]+0.085*[#   6]+0.085*[#   7]+0.085*[#   8]
          +0.083*[#  15]+0.013*[#  14]+0.002*[#   3]+0.002*[#   4]+0.002*[#   5]
          
    |psi|^2 = 1.000
==== e(  10) =    -5.83363 eV ==== 
     psi = 0.323*[#  27]+0.323*[#  31]+0.085*[#  19]+0.085*[#  20]+0.085*[#  21]
          +0.079*[#   2]+0.014*[#   1]+0.001*[#  16]+0.001*[#  17]+0.001*[#  18]
          
    |psi|^2 = 1.000
==== e(  11) =     7.32022 eV ==== 
     psi = 0.123*[#  15]+0.091*[#  28]+0.091*[#  29]+0.091*[#  30]+0.091*[#  32]
          +0.091*[#  33]+0.091*[#  34]+0.089*[#  23]+0.089*[#  24]+0.089*[#  26]
          +0.025*[#  27]+0.025*[#  31]+0.004*[#  14]+0.003*[#   6]+0.003*[#   7]
          +0.003*[#   8]
    |psi|^2 = 0.999
==== e(  12) =     7.78378 eV ==== 
     psi = 0.143*[#   2]+0.115*[#  28]+0.115*[#  29]+0.115*[#  30]+0.115*[#  32]
          +0.115*[#  33]+0.115*[#  34]+0.030*[#  10]+0.030*[#  11]+0.030*[#  13]
          +0.028*[#  27]+0.028*[#  31]+0.005*[#   1]+0.005*[#  19]+0.005*[#  20]
          +0.005*[#  21]
    |psi|^2 = 0.997
==== e(  13) =     8.31466 eV ==== 
     psi = 0.240*[#  22]+0.240*[#  25]+0.073*[#  28]+0.073*[#  29]+0.073*[#  30]
          +0.073*[#  32]+0.073*[#  33]+0.073*[#  34]+0.026*[#  23]+0.026*[#  24]
          +0.026*[#  26]
    |psi|^2 = 0.999
==== e(  14) =     8.31466 eV ==== 
     psi = 0.240*[#  22]+0.240*[#  25]+0.073*[#  28]+0.073*[#  29]+0.073*[#  30]
          +0.073*[#  32]+0.073*[#  33]+0.073*[#  34]+0.026*[#  23]+0.026*[#  24]
          +0.026*[#  26]
    |psi|^2 = 0.999
==== e(  15) =     9.44879 eV ==== 
     psi = 0.128*[#  28]+0.128*[#  29]+0.128*[#  30]+0.128*[#  32]+0.128*[#  33]
          +0.128*[#  34]+0.095*[#   9]+0.095*[#  12]+0.010*[#  10]+0.010*[#  11]
          +0.010*[#  13]+0.002*[#  19]+0.002*[#  20]+0.002*[#  21]
    |psi|^2 = 0.996
==== e(  16) =     9.44879 eV ==== 
     psi = 0.128*[#  28]+0.128*[#  29]+0.128*[#  30]+0.128*[#  32]+0.128*[#  33]
          +0.128*[#  34]+0.095*[#   9]+0.095*[#  12]+0.010*[#  10]+0.010*[#  11]
          +0.010*[#  13]+0.002*[#  19]+0.002*[#  20]+0.002*[#  21]
    |psi|^2 = 0.996
==== e(  17) =    10.63701 eV ==== 
     psi = 0.298*[#  23]+0.298*[#  24]+0.298*[#  26]+0.049*[#  22]+0.049*[#  25]
          
    |psi|^2 = 0.999
==== e(  18) =    10.63702 eV ==== 
     psi = 0.298*[#  23]+0.298*[#  24]+0.298*[#  26]+0.049*[#  22]+0.049*[#  25]
          
    |psi|^2 = 0.999
==== e(  19) =    10.69081 eV ==== 
     psi = 0.242*[#  23]+0.242*[#  24]+0.242*[#  26]+0.037*[#  15]+0.032*[#  28]
          +0.032*[#  29]+0.032*[#  30]+0.032*[#  32]+0.032*[#  33]+0.032*[#  34]
          +0.013*[#  27]+0.013*[#  31]+0.005*[#   6]+0.005*[#   7]+0.005*[#   8]
          +0.002*[#  14]
    |psi|^2 = 0.998
==== e(  20) =    12.63546 eV ==== 
     psi = 0.209*[#  22]+0.209*[#  25]+0.091*[#  28]+0.091*[#  29]+0.091*[#  30]
          +0.091*[#  32]+0.091*[#  33]+0.091*[#  34]+0.009*[#  23]+0.009*[#  24]
          +0.009*[#  26]+0.002*[#   6]+0.002*[#   7]+0.002*[#   8]
    |psi|^2 = 0.995
==== e(  21) =    12.63546 eV ==== 
     psi = 0.209*[#  22]+0.209*[#  25]+0.091*[#  28]+0.091*[#  29]+0.091*[#  30]
          +0.091*[#  32]+0.091*[#  33]+0.091*[#  34]+0.009*[#  23]+0.009*[#  24]
          +0.009*[#  26]+0.002*[#   6]+0.002*[#   7]+0.002*[#   8]
    |psi|^2 = 0.995
==== e(  22) =    13.35264 eV ==== 
     psi = 0.309*[#  10]+0.309*[#  11]+0.309*[#  13]+0.029*[#   9]+0.029*[#  12]
          +0.002*[#  19]+0.002*[#  20]+0.002*[#  21]+0.001*[#  28]+0.001*[#  29]
          +0.001*[#  30]+0.001*[#  32]+0.001*[#  33]+0.001*[#  34]
    |psi|^2 = 0.996
==== e(  23) =    13.35264 eV ==== 
     psi = 0.309*[#  10]+0.309*[#  11]+0.309*[#  13]+0.029*[#   9]+0.029*[#  12]
          +0.002*[#  19]+0.002*[#  20]+0.002*[#  21]+0.001*[#  28]+0.001*[#  29]
          +0.001*[#  30]+0.001*[#  32]+0.001*[#  33]+0.001*[#  34]
    |psi|^2 = 0.996
==== e(  24) =    13.82855 eV ==== 
     psi = 0.293*[#  10]+0.293*[#  11]+0.293*[#  13]+0.010*[#  28]+0.010*[#  29]
          +0.010*[#  30]+0.010*[#  32]+0.010*[#  33]+0.010*[#  34]+0.009*[#  27]
          +0.009*[#  31]+0.009*[#  19]+0.009*[#  20]+0.009*[#  21]+0.005*[#   2]
          +0.003*[#   1]
    |psi|^2 = 0.989
==== e(  25) =    15.32899 eV ==== 
     psi = 0.374*[#   9]+0.374*[#  12]+0.035*[#  28]+0.035*[#  29]+0.035*[#  30]
          +0.035*[#  32]+0.035*[#  33]+0.035*[#  34]+0.011*[#  10]+0.011*[#  11]
          +0.011*[#  13]+0.001*[#  19]+0.001*[#  20]+0.001*[#  21]
    |psi|^2 = 0.997
==== e(  26) =    15.32899 eV ==== 
     psi = 0.374*[#   9]+0.374*[#  12]+0.035*[#  28]+0.035*[#  29]+0.035*[#  30]
          +0.035*[#  32]+0.035*[#  33]+0.035*[#  34]+0.011*[#  10]+0.011*[#  11]
          +0.011*[#  13]+0.001*[#  19]+0.001*[#  20]+0.001*[#  21]
    |psi|^2 = 0.997
==== e(  27) =    17.26491 eV ==== 
     psi = 0.177*[#  15]+0.130*[#  27]+0.130*[#  31]+0.101*[#   6]+0.101*[#   7]
          +0.101*[#   8]+0.037*[#  28]+0.037*[#  29]+0.037*[#  30]+0.037*[#  32]
          +0.037*[#  33]+0.037*[#  34]+0.018*[#  14]+0.002*[#   3]+0.002*[#   4]
          +0.002*[#   5]
    |psi|^2 = 0.988
==== e(  28) =    17.60013 eV ==== 
     psi = 0.162*[#   2]+0.131*[#  27]+0.131*[#  31]+0.107*[#  19]+0.107*[#  20]
          +0.107*[#  21]+0.035*[#  28]+0.035*[#  29]+0.035*[#  30]+0.035*[#  32]
          +0.035*[#  33]+0.035*[#  34]+0.020*[#   1]+0.003*[#  10]+0.003*[#  11]
          +0.003*[#  13]+0.002*[#  16]+0.002*[#  17]+0.002*[#  18]
    |psi|^2 = 0.989
==== e(  29) =    25.07003 eV ==== 
     psi = 0.344*[#  15]+0.052*[#   6]+0.052*[#   7]+0.052*[#   8]+0.029*[#  14]
          +0.004*[#  28]+0.004*[#  29]+0.004*[#  30]+0.004*[#  32]+0.004*[#  33]
          +0.004*[#  34]+0.002*[#  27]+0.002*[#  31]
    |psi|^2 = 0.563
==== e(  30) =    25.64596 eV ==== 
     psi = 0.370*[#   2]+0.050*[#  19]+0.050*[#  20]+0.050*[#  21]+0.028*[#   1]
          +0.007*[#  10]+0.007*[#  11]+0.007*[#  13]+0.004*[#  28]+0.004*[#  29]
          +0.004*[#  30]+0.004*[#  32]+0.004*[#  33]+0.004*[#  34]+0.002*[#  27]
          +0.002*[#  31]
    |psi|^2 = 0.596
==== e(  31) =    30.41533 eV ==== 
     psi = 0.147*[#   6]+0.147*[#   7]+0.147*[#   8]+0.003*[#   3]+0.003*[#   4]
          +0.003*[#   5]
    |psi|^2 = 0.457
==== e(  32) =    30.41533 eV ==== 
     psi = 0.147*[#   6]+0.147*[#   7]+0.147*[#   8]+0.003*[#   3]+0.003*[#   4]
          +0.003*[#   5]
    |psi|^2 = 0.457
==== e(  33) =    30.52439 eV ==== 
     psi = 0.163*[#  19]+0.163*[#  20]+0.163*[#  21]+0.003*[#  16]+0.003*[#  17]
          +0.003*[#  18]+0.003*[#  10]+0.003*[#  11]+0.003*[#  13]
    |psi|^2 = 0.514
==== e(  34) =    30.52439 eV ==== 
     psi = 0.163*[#  19]+0.163*[#  20]+0.163*[#  21]+0.003*[#  16]+0.003*[#  17]
          +0.003*[#  18]+0.003*[#  10]+0.003*[#  11]+0.003*[#  13]
    |psi|^2 = 0.514
==== e(  35) =    34.00614 eV ==== 
     psi = 0.148*[#   2]+0.025*[#  19]+0.025*[#  20]+0.025*[#  21]+0.013*[#   1]
          +0.001*[#  27]+0.001*[#  28]+0.001*[#  29]+0.001*[#  30]+0.001*[#  31]
          +0.001*[#  32]+0.001*[#  33]+0.001*[#  34]
    |psi|^2 = 0.245

Lowdin Charges: 

     Atom #   1: total charge =  15.4785, s =  2.2570, p =  6.7758, d =  6.4456, 
                 spin up      =   9.4472, s =  1.1303, 
                 spin up      =   9.4472, p =  3.3860, pz=  1.1287, px=  1.1287, py=  1.1287, 
                 spin up      =   9.4472, d =  4.9308, dz2=  0.9772, dxz=  0.9921, dyz=  0.9921, dx2-y2=  0.9772, dxy=  0.9921, 
                 spin down    =   6.0312, s =  1.1267, 
                 spin down    =   6.0312, p =  3.3898, pz=  1.1299, px=  1.1299, py=  1.1299, 
                 spin down    =   6.0312, d =  1.5148, dz2=  0.2093, dxz=  0.3654, dyz=  0.3654, dx2-y2=  0.2093, dxy=  0.3654, 
                 polarization =   3.4160, s =  0.0037, p = -0.0037, d =  3.4161, 
     Atom #   2: total charge =  15.4784, s =  2.2570, p =  6.7758, d =  6.4456, 
                 spin up      =   6.0312, s =  1.1267, 
                 spin up      =   6.0312, p =  3.3898, pz=  1.1299, px=  1.1299, py=  1.1299, 
                 spin up      =   6.0312, d =  1.5147, dz2=  0.2093, dxz=  0.3654, dyz=  0.3654, dx2-y2=  0.2093, dxy=  0.3654, 
                 spin down    =   9.4472, s =  1.1303, 
                 spin down    =   9.4472, p =  3.3860, pz=  1.1287, px=  1.1287, py=  1.1287, 
                 spin down    =   9.4472, d =  4.9308, dz2=  0.9772, dxz=  0.9921, dyz=  0.9921, dx2-y2=  0.9772, dxy=  0.9921, 
                 polarization =  -3.4161, s = -0.0037, p =  0.0037, d = -3.4161, 
     Atom #   3: total charge =   6.4782, s =  1.6564, p =  4.8217, d =  0.0000, 
                 spin up      =   3.2391, s =  0.8282, 
                 spin up      =   3.2391, p =  2.4109, pz=  0.8036, px=  0.8036, py=  0.8036, 
                 spin up      =   3.2391, d =  0.0000, dz2=  0.0000, dxz=  0.0000, dyz=  0.0000, dx2-y2=  0.0000, dxy=  0.0000, 
                 spin down    =   3.2391, s =  0.8282, 
                 spin down    =   3.2391, p =  2.4109, pz=  0.8036, px=  0.8036, py=  0.8036, 
                 spin down    =   3.2391, d =  0.0000, dz2=  0.0000, dxz=  0.0000, dyz=  0.0000, dx2-y2=  0.0000, dxy=  0.0000, 
                 polarization =  -0.0000, s = -0.0000, p = -0.0000, d =  0.0000, 
     Atom #   4: total charge =   6.4782, s =  1.6564, p =  4.8217, d =  0.0000, 
                 spin up      =   3.2391, s =  0.8282, 
                 spin up      =   3.2391, p =  2.4109, pz=  0.8036, px=  0.8036, py=  0.8036, 
                 spin up      =   3.2391, d =  0.0000, dz2=  0.0000, dxz=  0.0000, dyz=  0.0000, dx2-y2=  0.0000, dxy=  0.0000, 
                 spin down    =   3.2391, s =  0.8282, 
                 spin down    =   3.2391, p =  2.4109, pz=  0.8036, px=  0.8036, py=  0.8036, 
                 spin down    =   3.2391, d =  0.0000, dz2=  0.0000, dxz=  0.0000, dyz=  0.0000, dx2-y2=  0.0000, dxy=  0.0000, 
                 polarization =  -0.0000, s = -0.0000, p = -0.0000, d =  0.0000, 
     Spilling Parameter:   0.0020
 
     PROJWFC      :      2.09s CPU      2.36s WALL

 
   This run was terminated on:  13: 2:35  16Apr2021            

=------------------------------------------------------------------------------=
   JOB DONE.
=------------------------------------------------------------------------------=
