
     Program PWSCF v.6.7MaX starts on 16Apr2021 at 12:59:18 

     This program is part of the open-source Quantum ESPRESSO suite
     for quantum simulation of materials; please cite
         "P. Giannozzi et al., J. Phys.:Condens. Matter 21 395502 (2009);
         "P. Giannozzi et al., J. Phys.:Condens. Matter 29 465901 (2017);
          URL http://www.quantum-espresso.org", 
     in publications or presentations arising from this work. More details at
     http://www.quantum-espresso.org/quote

     Parallel version (MPI), running on     1 processors

     MPI processes distributed on     1 nodes
     Waiting for input...
     Reading input from standard input

     Current dimensions of program PWSCF are:
     Max number of different atomic species (ntypx) = 10
     Max number of k-points (npk) =  40000
     Max angular momentum in pseudopotentials (lmaxx) =  3
     Message from routine volume:
     axis vectors are left-handed
     file Fe.pbesol-spn-kjpaw_psl.0.2.1.UPF: wavefunction(s)  3D renormalized
     file Fe.pbesol-spn-kjpaw_psl.0.2.1.UPF: wavefunction(s)  3D renormalized
     file O.pbesol-n-kjpaw_psl.0.1.UPF: wavefunction(s)  2P renormalized

     Subspace diagonalization in iterative solution of the eigenvalue problem:
     a serial algorithm will be used

     Message from routine setup:
     using ibrav=0 with symmetry is DISCOURAGED, use correct ibrav instead
 
     G-vector sticks info
     --------------------
     sticks:   dense  smooth     PW     G-vecs:    dense   smooth      PW
     Sum        1061     539    171                17255     6111    1141
 


     bravais-lattice index     =            0
     lattice parameter (alat)  =       8.1900  a.u.
     unit-cell volume          =     274.6766 (a.u.)^3
     number of atoms/cell      =            4
     number of atomic types    =            3
     number of electrons       =        44.00
     number of Kohn-Sham states=           26
     kinetic-energy cutoff     =      30.0000  Ry
     charge density cutoff     =     240.0000  Ry
     scf convergence threshold =      1.0E-09
     mixing beta               =       0.3000
     number of iterations used =            8  plain     mixing
     Exchange-correlation= SLA  PW   PSX  PSC
                           (   1   4  10   8   0   0   0)

     celldm(1)=   8.190000  celldm(2)=   0.000000  celldm(3)=   0.000000
     celldm(4)=   0.000000  celldm(5)=   0.000000  celldm(6)=   0.000000

     crystal axes: (cart. coord. in units of alat)
               a(1) = (   0.500000   0.500000   1.000000 )  
               a(2) = (   0.500000   1.000000   0.500000 )  
               a(3) = (   1.000000   0.500000   0.500000 )  

     reciprocal axes: (cart. coord. in units 2 pi/alat)
               b(1) = ( -0.500000 -0.500000  1.500000 )  
               b(2) = ( -0.500000  1.500000 -0.500000 )  
               b(3) = (  1.500000 -0.500000 -0.500000 )  


     PseudoPot. # 1 for Fe read from file:
     ../../pseudo/Fe.pbesol-spn-kjpaw_psl.0.2.1.UPF
     MD5 check sum: 7febcda02fc281f884e3aa15a414695d
     Pseudo is Projector augmented-wave + core cor, Zval = 16.0
     Generated using "atomic" code by A. Dal Corso  v.6.0 svn rev. 13079
     Shape of augmentation charge: PSQ
     Using radial grid of 1191 points,  6 beta functions with: 
                l(1) =   0
                l(2) =   0
                l(3) =   1
                l(4) =   1
                l(5) =   2
                l(6) =   2
     Q(r) pseudized with 0 coefficients 


     PseudoPot. # 2 for Fe read from file:
     ../../pseudo/Fe.pbesol-spn-kjpaw_psl.0.2.1.UPF
     MD5 check sum: 7febcda02fc281f884e3aa15a414695d
     Pseudo is Projector augmented-wave + core cor, Zval = 16.0
     Generated using "atomic" code by A. Dal Corso  v.6.0 svn rev. 13079
     Shape of augmentation charge: PSQ
     Using radial grid of 1191 points,  6 beta functions with: 
                l(1) =   0
                l(2) =   0
                l(3) =   1
                l(4) =   1
                l(5) =   2
                l(6) =   2
     Q(r) pseudized with 0 coefficients 


     PseudoPot. # 3 for O  read from file:
     ../../pseudo/O.pbesol-n-kjpaw_psl.0.1.UPF
     MD5 check sum: 126339daddaa87477ab44acfa0b5aa00
     Pseudo is Projector augmented-wave + core cor, Zval =  6.0
     Generated using "atomic" code by A. Dal Corso  v.6.0 svn rev. 13079
     Shape of augmentation charge: BESSEL
     Using radial grid of 1095 points,  4 beta functions with: 
                l(1) =   0
                l(2) =   0
                l(3) =   1
                l(4) =   1
     Q(r) pseudized with 0 coefficients 


     atomic species   valence    mass     pseudopotential
        Fe1           16.00    55.84500     Fe( 1.00)
        Fe2           16.00    55.84500     Fe( 1.00)
        O              6.00    16.00000     O ( 1.00)

     Starting magnetic structure 
     atomic species   magnetization
        Fe1          0.500
        Fe2         -0.500
        O            0.000


     Simplified LDA+U calculation (l_max = 2) with parameters (eV):
     atomic species    L          U    alpha       J0     beta
        Fe1            2     0.0000   0.0000   0.0000   0.0000
        Fe2            2     0.0000   0.0000   0.0000   0.0000



     12 Sym. Ops., with inversion, found


                                    s                        frac. trans.

      isym =  1     identity                                     

 cryst.   s( 1) = (     1          0          0      )
                  (     0          1          0      )
                  (     0          0          1      )

 cart.    s( 1) = (  1.0000000  0.0000000  0.0000000 )
                  (  0.0000000  1.0000000  0.0000000 )
                  (  0.0000000  0.0000000  1.0000000 )


      isym =  2     180 deg rotation - cart. axis [1,-1,0]       

 cryst.   s( 2) = (    -1          0          0      )
                  (     0          0         -1      )
                  (     0         -1          0      )

 cart.    s( 2) = (  0.0000000 -1.0000000  0.0000000 )
                  ( -1.0000000  0.0000000  0.0000000 )
                  (  0.0000000  0.0000000 -1.0000000 )


      isym =  3     180 deg rotation - cart. axis [-1,0,1]       

 cryst.   s( 3) = (     0          0         -1      )
                  (     0         -1          0      )
                  (    -1          0          0      )

 cart.    s( 3) = (  0.0000000  0.0000000 -1.0000000 )
                  (  0.0000000 -1.0000000  0.0000000 )
                  ( -1.0000000  0.0000000  0.0000000 )


      isym =  4     180 deg rotation - cart. axis [0,1,-1]       

 cryst.   s( 4) = (     0         -1          0      )
                  (    -1          0          0      )
                  (     0          0         -1      )

 cart.    s( 4) = ( -1.0000000  0.0000000  0.0000000 )
                  (  0.0000000  0.0000000 -1.0000000 )
                  (  0.0000000 -1.0000000  0.0000000 )


      isym =  5     120 deg rotation - cart. axis [-1,-1,-1]     

 cryst.   s( 5) = (     0          1          0      )
                  (     0          0          1      )
                  (     1          0          0      )

 cart.    s( 5) = (  0.0000000  1.0000000  0.0000000 )
                  (  0.0000000  0.0000000  1.0000000 )
                  (  1.0000000  0.0000000  0.0000000 )


      isym =  6     120 deg rotation - cart. axis [1,1,1]        

 cryst.   s( 6) = (     0          0          1      )
                  (     1          0          0      )
                  (     0          1          0      )

 cart.    s( 6) = (  0.0000000  0.0000000  1.0000000 )
                  (  1.0000000  0.0000000  0.0000000 )
                  (  0.0000000  1.0000000  0.0000000 )


      isym =  7     inversion                                    

 cryst.   s( 7) = (    -1          0          0      )
                  (     0         -1          0      )
                  (     0          0         -1      )

 cart.    s( 7) = ( -1.0000000  0.0000000  0.0000000 )
                  (  0.0000000 -1.0000000  0.0000000 )
                  (  0.0000000  0.0000000 -1.0000000 )


      isym =  8     inv. 180 deg rotation - cart. axis [1,-1,0]  

 cryst.   s( 8) = (     1          0          0      )
                  (     0          0          1      )
                  (     0          1          0      )

 cart.    s( 8) = (  0.0000000  1.0000000  0.0000000 )
                  (  1.0000000  0.0000000  0.0000000 )
                  (  0.0000000  0.0000000  1.0000000 )


      isym =  9     inv. 180 deg rotation - cart. axis [-1,0,1]  

 cryst.   s( 9) = (     0          0          1      )
                  (     0          1          0      )
                  (     1          0          0      )

 cart.    s( 9) = (  0.0000000  0.0000000  1.0000000 )
                  (  0.0000000  1.0000000  0.0000000 )
                  (  1.0000000  0.0000000  0.0000000 )


      isym = 10     inv. 180 deg rotation - cart. axis [0,1,-1]  

 cryst.   s(10) = (     0          1          0      )
                  (     1          0          0      )
                  (     0          0          1      )

 cart.    s(10) = (  1.0000000  0.0000000  0.0000000 )
                  (  0.0000000  0.0000000  1.0000000 )
                  (  0.0000000  1.0000000  0.0000000 )


      isym = 11     inv. 120 deg rotation - cart. axis [-1,-1,-1]

 cryst.   s(11) = (     0         -1          0      )
                  (     0          0         -1      )
                  (    -1          0          0      )

 cart.    s(11) = (  0.0000000 -1.0000000  0.0000000 )
                  (  0.0000000  0.0000000 -1.0000000 )
                  ( -1.0000000  0.0000000  0.0000000 )


      isym = 12     inv. 120 deg rotation - cart. axis [1,1,1]   

 cryst.   s(12) = (     0          0         -1      )
                  (    -1          0          0      )
                  (     0         -1          0      )

 cart.    s(12) = (  0.0000000  0.0000000 -1.0000000 )
                  ( -1.0000000  0.0000000  0.0000000 )
                  (  0.0000000 -1.0000000  0.0000000 )


   Cartesian axes

     site n.     atom                  positions (alat units)
         1           Fe1 tau(   1) = (   0.0000000   0.0000000   0.0000000  )
         2           Fe2 tau(   2) = (   1.0000000   1.0000000   1.0000000  )
         3           O   tau(   3) = (   0.5000000   0.5000000   0.5000000  )
         4           O   tau(   4) = (   1.5000000   1.5000000   1.5000000  )

   Crystallographic axes

     site n.     atom                  positions (cryst. coord.)
         1           Fe1 tau(   1) = (  0.0000000  0.0000000  0.0000000  )
         2           Fe2 tau(   2) = (  0.5000000  0.5000000  0.5000000  )
         3           O   tau(   3) = (  0.2500000  0.2500000  0.2500000  )
         4           O   tau(   4) = (  0.7500000  0.7500000  0.7500000  )

     number of k points=     6  Marzari-Vanderbilt smearing, width (Ry)=  0.0200
                       cart. coord. in units 2pi/alat
        k(    1) = (   0.0000000   0.0000000   0.0000000), wk =   0.0370370
        k(    2) = (   0.5000000  -0.1666667  -0.1666667), wk =   0.2222222
        k(    3) = (   0.3333333   0.3333333  -0.3333333), wk =   0.2222222
        k(    4) = (  -0.6666667   0.6666667   0.0000000), wk =   0.2222222
        k(    5) = (   0.1666667   0.1666667   0.1666667), wk =   0.0740741
        k(    6) = (  -0.8333333   0.5000000   0.5000000), wk =   0.2222222

                       cryst. coord.
        k(    1) = (   0.0000000   0.0000000   0.0000000), wk =   0.0370370
        k(    2) = (   0.0000000   0.0000000   0.3333333), wk =   0.2222222
        k(    3) = (   0.0000000   0.3333333   0.3333333), wk =   0.2222222
        k(    4) = (   0.0000000   0.3333333  -0.3333333), wk =   0.2222222
        k(    5) = (   0.3333333   0.3333333   0.3333333), wk =   0.0740741
        k(    6) = (   0.3333333   0.3333333  -0.3333333), wk =   0.2222222

     Dense  grid:    17255 G-vectors     FFT dimensions: (  50,  50,  50)

     Smooth grid:     6111 G-vectors     FFT dimensions: (  36,  36,  36)

     Dynamical RAM for                 wfc:       0.30 MB

     Dynamical RAM for     wfc (w. buffer):       3.93 MB

     Dynamical RAM for             U proj.:       0.12 MB

     Dynamical RAM for  U proj. (w. buff.):       1.51 MB

     Dynamical RAM for           str. fact:       0.79 MB

     Dynamical RAM for           local pot:       0.00 MB

     Dynamical RAM for          nlocal pot:       0.60 MB

     Dynamical RAM for                qrad:       3.73 MB

     Dynamical RAM for          rho,v,vnew:       7.30 MB

     Dynamical RAM for               rhoin:       2.43 MB

     Dynamical RAM for            rho*nmix:       8.43 MB

     Dynamical RAM for           G-vectors:       1.03 MB

     Dynamical RAM for          h,s,v(r/c):       0.12 MB

     Dynamical RAM for          <psi|beta>:       0.02 MB

     Dynamical RAM for                 psi:       0.60 MB

     Dynamical RAM for                hpsi:       0.60 MB

     Dynamical RAM for                spsi:       0.60 MB

     Dynamical RAM for      wfcinit/wfcrot:       0.82 MB

     Dynamical RAM for           addusdens:      49.76 MB

     Estimated static dynamical RAM per process >      36.54 MB

     Estimated max dynamical RAM per process >      86.30 MB

     Check: negative core charge=   -0.000246
     Generating pointlists ...
     new r_m :   0.2063 (alat units)  1.6892 (a.u.) for type    1
     new r_m :   0.2063 (alat units)  1.6892 (a.u.) for type    2
     new r_m :   0.2063 (alat units)  1.6892 (a.u.) for type    3

     Initial potential from superposition of free atoms

     starting charge   43.99919, renormalised to   44.00000
 --- in v_hubbard ---
Hubbard energy    0.0000
 -------
     Number of +U iterations with fixed ns =  0
     Starting occupations:
 --- enter write_ns ---
 LDA+U parameters:
U( 1)     =  0.00000001
U( 2)     =  0.00000001
atom    1   Tr[ns(na)] (up, down, total) =   5.00000  1.00000  6.00000
   spin  1
    eigenvalues: 
  1.000  1.000  1.000  1.000  1.000
    eigenvectors:
  1.000  0.000  0.000  0.000  0.000
  0.000  1.000  0.000  0.000  0.000
  0.000  0.000  1.000  0.000  0.000
  0.000  0.000  0.000  1.000  0.000
  0.000  0.000  0.000  0.000  1.000
    occupations:
  1.000  0.000  0.000  0.000  0.000
  0.000  1.000  0.000  0.000  0.000
  0.000  0.000  1.000  0.000  0.000
  0.000  0.000  0.000  1.000  0.000
  0.000  0.000  0.000  0.000  1.000
   spin  2
    eigenvalues: 
  0.200  0.200  0.200  0.200  0.200
    eigenvectors:
  1.000  0.000  0.000  0.000  0.000
  0.000  1.000  0.000  0.000  0.000
  0.000  0.000  1.000  0.000  0.000
  0.000  0.000  0.000  1.000  0.000
  0.000  0.000  0.000  0.000  1.000
    occupations:
  0.200  0.000  0.000  0.000  0.000
  0.000  0.200  0.000  0.000  0.000
  0.000  0.000  0.200  0.000  0.000
  0.000  0.000  0.000  0.200  0.000
  0.000  0.000  0.000  0.000  0.200
atomic mag. moment =   4.00000
atom    2   Tr[ns(na)] (up, down, total) =   1.00000  5.00000  6.00000
   spin  1
    eigenvalues: 
  0.200  0.200  0.200  0.200  0.200
    eigenvectors:
  1.000  0.000  0.000  0.000  0.000
  0.000  1.000  0.000  0.000  0.000
  0.000  0.000  1.000  0.000  0.000
  0.000  0.000  0.000  1.000  0.000
  0.000  0.000  0.000  0.000  1.000
    occupations:
  0.200  0.000  0.000  0.000  0.000
  0.000  0.200  0.000  0.000  0.000
  0.000  0.000  0.200  0.000  0.000
  0.000  0.000  0.000  0.200  0.000
  0.000  0.000  0.000  0.000  0.200
   spin  2
    eigenvalues: 
  1.000  1.000  1.000  1.000  1.000
    eigenvectors:
  1.000  0.000  0.000  0.000  0.000
  0.000  1.000  0.000  0.000  0.000
  0.000  0.000  1.000  0.000  0.000
  0.000  0.000  0.000  1.000  0.000
  0.000  0.000  0.000  0.000  1.000
    occupations:
  1.000  0.000  0.000  0.000  0.000
  0.000  1.000  0.000  0.000  0.000
  0.000  0.000  1.000  0.000  0.000
  0.000  0.000  0.000  1.000  0.000
  0.000  0.000  0.000  0.000  1.000
atomic mag. moment =  -4.00000
N of occupied +U levels =   12.000000
 --- exit write_ns ---
 Atomic wfc used for LDA+U Projector are NOT orthogonalized
     Starting wfcs are   34 randomized atomic wfcs
     Checking if some PAW data can be deallocated... 

     total cpu time spent up to now is        2.2 secs

     Self-consistent Calculation

     iteration #  1     ecut=    30.00 Ry     beta= 0.30
     Davidson diagonalization with overlap
     ethr =  1.00E-02,  avg # of iterations =  2.0
 --- enter write_ns ---
 LDA+U parameters:
U( 1)     =  0.00000001
U( 2)     =  0.00000001
atom    1   Tr[ns(na)] (up, down, total) =   5.00293  1.27285  6.27577
   spin  1
    eigenvalues: 
  0.999  0.999  1.002  1.002  1.002
    eigenvectors:
  0.003  0.996  0.001  0.000  0.000
  0.001  0.000  0.001  0.665  0.333
  0.000  0.000  0.476  0.190  0.333
  0.996  0.003  0.000  0.001  0.000
  0.000  0.001  0.522  0.144  0.333
    occupations:
  0.999 -0.000 -0.000  0.000 -0.000
 -0.000  1.002  0.000 -0.000 -0.000
 -0.000  0.000  1.002  0.000 -0.000
  0.000 -0.000  0.000  0.999 -0.000
 -0.000 -0.000 -0.000 -0.000  1.002
   spin  2
    eigenvalues: 
  0.146  0.146  0.322  0.322  0.338
    eigenvectors:
  0.240  0.745  0.007  0.008  0.000
  0.010  0.000  0.054  0.603  0.333
  0.002  0.007  0.622  0.035  0.333
  0.745  0.240  0.008  0.007  0.000
  0.002  0.007  0.309  0.348  0.333
    occupations:
  0.148 -0.009 -0.009  0.000 -0.017
 -0.009  0.326  0.006 -0.015 -0.006
 -0.009  0.006  0.326  0.015 -0.006
  0.000 -0.015  0.015  0.148 -0.000
 -0.017 -0.006 -0.006 -0.000  0.326
atomic mag. moment =   3.73008
atom    2   Tr[ns(na)] (up, down, total) =   1.27283  5.00293  6.27576
   spin  1
    eigenvalues: 
  0.145  0.145  0.322  0.322  0.339
    eigenvectors:
  0.090  0.896  0.010  0.004  0.000
  0.009  0.000  0.001  0.656  0.333
  0.004  0.005  0.514  0.143  0.333
  0.896  0.090  0.004  0.010  0.000
  0.001  0.009  0.470  0.187  0.333
    occupations:
  0.148 -0.009 -0.009  0.000 -0.017
 -0.009  0.326  0.006 -0.015 -0.006
 -0.009  0.006  0.326  0.015 -0.006
  0.000 -0.015  0.015  0.148 -0.000
 -0.017 -0.006 -0.006 -0.000  0.326
   spin  2
    eigenvalues: 
  0.999  0.999  1.002  1.002  1.002
    eigenvectors:
  0.108  0.891  0.001  0.000  0.000
  0.000  0.000  0.000  0.666  0.333
  0.001  0.000  0.490  0.176  0.333
  0.891  0.108  0.000  0.001  0.000
  0.000  0.001  0.509  0.157  0.333
    occupations:
  0.999 -0.000 -0.000  0.000 -0.000
 -0.000  1.002  0.000 -0.000 -0.000
 -0.000  0.000  1.002  0.000 -0.000
  0.000 -0.000  0.000  0.999 -0.000
 -0.000 -0.000 -0.000 -0.000  1.002
atomic mag. moment =  -3.73010
N of occupied +U levels =   12.551538
 --- exit write_ns ---

     negative rho (up, down):  6.119E-05 6.128E-05
 --- in v_hubbard ---
Hubbard energy    0.0000
 -------

     total cpu time spent up to now is        4.0 secs

     total energy              =    -734.88458870 Ry
     estimated scf accuracy    <       1.55782755 Ry

     total magnetization       =     0.00 Bohr mag/cell
     absolute magnetization    =     8.13 Bohr mag/cell

     iteration #  2     ecut=    30.00 Ry     beta= 0.30
     Davidson diagonalization with overlap
     ethr =  3.54E-03,  avg # of iterations =  2.2
 --- enter write_ns ---
 LDA+U parameters:
U( 1)     =  0.00000001
U( 2)     =  0.00000001
atom    1   Tr[ns(na)] (up, down, total) =   4.99677  1.72327  6.72004
   spin  1
    eigenvalues: 
  0.997  0.997  1.001  1.001  1.001
    eigenvectors:
  0.100  0.898  0.000  0.002  0.000
  0.001  0.000  0.333  0.000  0.665
  0.001  0.001  0.333  0.493  0.173
  0.898  0.100  0.000  0.000  0.002
  0.000  0.001  0.333  0.505  0.160
    occupations:
  0.997 -0.000 -0.000  0.000 -0.000
 -0.000  1.001 -0.000 -0.000  0.000
 -0.000 -0.000  1.001  0.000  0.000
  0.000 -0.000  0.000  0.997 -0.000
 -0.000  0.000  0.000 -0.000  1.001
   spin  2
    eigenvalues: 
  0.254  0.254  0.391  0.412  0.412
    eigenvectors:
  0.661  0.264  0.000  0.042  0.033
  0.039  0.011  0.333  0.025  0.592
  0.000  0.050  0.333  0.555  0.061
  0.264  0.661  0.000  0.033  0.042
  0.036  0.014  0.333  0.345  0.272
    occupations:
  0.266 -0.017 -0.017  0.000 -0.034
 -0.017  0.397 -0.003 -0.029  0.003
 -0.017 -0.003  0.397  0.029  0.003
  0.000 -0.029  0.029  0.266 -0.000
 -0.034  0.003  0.003 -0.000  0.397
atomic mag. moment =   3.27350
atom    2   Tr[ns(na)] (up, down, total) =   1.73372  4.99686  6.73058
   spin  1
    eigenvalues: 
  0.256  0.256  0.393  0.414  0.414
    eigenvectors:
  0.475  0.446  0.000  0.030  0.049
  0.049  0.004  0.333  0.086  0.529
  0.003  0.049  0.333  0.602  0.012
  0.446  0.475  0.000  0.049  0.030
  0.027  0.025  0.333  0.234  0.381
    occupations:
  0.268 -0.017 -0.017  0.000 -0.035
 -0.017  0.399 -0.003 -0.030  0.003
 -0.017 -0.003  0.399  0.030  0.003
  0.000 -0.030  0.030  0.268 -0.000
 -0.035  0.003  0.003 -0.000  0.399
   spin  2
    eigenvalues: 
  0.997  0.997  1.001  1.001  1.001
    eigenvectors:
  0.052  0.946  0.000  0.001  0.001
  0.001  0.000  0.333  0.002  0.664
  0.001  0.001  0.333  0.528  0.137
  0.946  0.052  0.000  0.001  0.001
  0.000  0.001  0.333  0.468  0.197
    occupations:
  0.997 -0.000 -0.000  0.000 -0.000
 -0.000  1.001 -0.000 -0.000  0.000
 -0.000 -0.000  1.001  0.000  0.000
  0.000 -0.000  0.000  0.997 -0.000
 -0.000  0.000  0.000 -0.000  1.001
atomic mag. moment =  -3.26313
N of occupied +U levels =   13.450622
 --- exit write_ns ---

     negative rho (up, down):  1.228E-04 1.234E-04
 --- in v_hubbard ---
Hubbard energy    0.0000
 -------

     total cpu time spent up to now is        5.7 secs

     total energy              =    -735.22055999 Ry
     estimated scf accuracy    <       0.58216943 Ry

     total magnetization       =     0.01 Bohr mag/cell
     absolute magnetization    =     7.37 Bohr mag/cell

     iteration #  3     ecut=    30.00 Ry     beta= 0.30
     Davidson diagonalization with overlap
     ethr =  1.32E-03,  avg # of iterations =  1.0
 --- enter write_ns ---
 LDA+U parameters:
U( 1)     =  0.00000001
U( 2)     =  0.00000001
atom    1   Tr[ns(na)] (up, down, total) =   4.99687  1.68371  6.68057
   spin  1
    eigenvalues: 
  0.996  0.996  1.001  1.001  1.001
    eigenvectors:
  0.073  0.922  0.000  0.004  0.001
  0.003  0.000  0.333  0.003  0.661
  0.002  0.002  0.333  0.460  0.204
  0.922  0.073  0.000  0.001  0.004
  0.000  0.003  0.333  0.533  0.131
    occupations:
  0.996 -0.000 -0.000  0.000 -0.000
 -0.000  1.001 -0.000 -0.000  0.000
 -0.000 -0.000  1.001  0.000  0.000
  0.000 -0.000  0.000  0.996 -0.000
 -0.000  0.000  0.000 -0.000  1.001
   spin  2
    eigenvalues: 
  0.238  0.238  0.371  0.418  0.418
    eigenvectors:
  0.281  0.670  0.000  0.027  0.022
  0.033  0.000  0.333  0.027  0.607
  0.007  0.026  0.333  0.573  0.061
  0.670  0.281  0.000  0.022  0.027
  0.010  0.023  0.333  0.351  0.283
    occupations:
  0.247 -0.016 -0.016  0.000 -0.032
 -0.016  0.397 -0.013 -0.028  0.013
 -0.016 -0.013  0.397  0.028  0.013
  0.000 -0.028  0.028  0.247 -0.000
 -0.032  0.013  0.013 -0.000  0.397
atomic mag. moment =   3.31316
atom    2   Tr[ns(na)] (up, down, total) =   1.64366  4.99661  6.64027
   spin  1
    eigenvalues: 
  0.236  0.236  0.359  0.406  0.406
    eigenvectors:
  0.475  0.470  0.000  0.031  0.024
  0.035  0.003  0.333  0.024  0.606
  0.002  0.035  0.333  0.564  0.066
  0.470  0.475  0.000  0.024  0.031
  0.019  0.018  0.333  0.357  0.273
    occupations:
  0.246 -0.016 -0.016  0.000 -0.032
 -0.016  0.384 -0.012 -0.027  0.012
 -0.016 -0.012  0.384  0.027  0.012
  0.000 -0.027  0.027  0.246 -0.000
 -0.032  0.012  0.012 -0.000  0.384
   spin  2
    eigenvalues: 
  0.996  0.996  1.001  1.001  1.001
    eigenvectors:
  0.019  0.975  0.000  0.004  0.001
  0.003  0.000  0.333  0.001  0.662
  0.002  0.001  0.333  0.472  0.191
  0.975  0.019  0.000  0.001  0.004
  0.000  0.003  0.333  0.521  0.142
    occupations:
  0.996 -0.000 -0.000  0.000 -0.000
 -0.000  1.001 -0.000 -0.000  0.000
 -0.000 -0.000  1.001  0.000  0.000
  0.000 -0.000  0.000  0.996 -0.000
 -0.000  0.000  0.000 -0.000  1.001
atomic mag. moment =  -3.35294
N of occupied +U levels =   13.320841
 --- exit write_ns ---

     negative rho (up, down):  3.170E-04 3.080E-04
 --- in v_hubbard ---
Hubbard energy    0.0000
 -------

     total cpu time spent up to now is        7.4 secs

     total energy              =    -735.39042963 Ry
     estimated scf accuracy    <       0.28255451 Ry

     total magnetization       =    -0.04 Bohr mag/cell
     absolute magnetization    =     7.42 Bohr mag/cell

     iteration #  4     ecut=    30.00 Ry     beta= 0.30
     Davidson diagonalization with overlap
     ethr =  6.42E-04,  avg # of iterations =  1.7
 --- enter write_ns ---
 LDA+U parameters:
U( 1)     =  0.00000001
U( 2)     =  0.00000001
atom    1   Tr[ns(na)] (up, down, total) =   4.97045  1.40399  6.37444
   spin  1
    eigenvalues: 
  0.986  0.986  1.000  1.000  1.000
    eigenvectors:
  0.187  0.801  0.000  0.009  0.003
  0.007  0.000  0.333  0.001  0.659
  0.002  0.005  0.333  0.478  0.181
  0.801  0.187  0.000  0.003  0.009
  0.001  0.006  0.333  0.510  0.149
    occupations:
  0.986 -0.001 -0.001  0.000 -0.001
 -0.001  1.000 -0.000 -0.001  0.000
 -0.001 -0.000  1.000  0.001  0.000
  0.000 -0.001  0.001  0.986 -0.000
 -0.001  0.000  0.000 -0.000  1.000
   spin  2
    eigenvalues: 
  0.249  0.249  0.264  0.321  0.321
    eigenvectors:
  0.394  0.464  0.000  0.043  0.099
  0.090  0.005  0.333  0.116  0.456
  0.008  0.086  0.333  0.570  0.002
  0.464  0.394  0.000  0.099  0.043
  0.044  0.051  0.333  0.172  0.400
    occupations:
  0.259 -0.010 -0.010  0.000 -0.021
 -0.010  0.295 -0.015 -0.018  0.015
 -0.010 -0.015  0.295  0.018  0.015
  0.000 -0.018  0.018  0.259 -0.000
 -0.021  0.015  0.015 -0.000  0.295
atomic mag. moment =   3.56646
atom    2   Tr[ns(na)] (up, down, total) =   2.15811  4.98603  7.14415
   spin  1
    eigenvalues: 
  0.299  0.299  0.443  0.559  0.559
    eigenvectors:
  0.011  0.964  0.000  0.015  0.010
  0.014  0.003  0.333  0.016  0.634
  0.011  0.006  0.333  0.568  0.082
  0.964  0.011  0.000  0.010  0.015
  0.000  0.017  0.333  0.391  0.259
    occupations:
  0.305 -0.017 -0.017  0.000 -0.033
 -0.017  0.516 -0.037 -0.029  0.037
 -0.017 -0.037  0.516  0.029  0.037
  0.000 -0.029  0.029  0.305 -0.000
 -0.033  0.037  0.037 -0.000  0.516
   spin  2
    eigenvalues: 
  0.994  0.994  1.000  1.000  1.000
    eigenvectors:
  0.241  0.728  0.000  0.021  0.009
  0.020  0.000  0.333  0.002  0.645
  0.005  0.015  0.333  0.514  0.132
  0.728  0.241  0.000  0.009  0.021
  0.005  0.015  0.333  0.454  0.193
    occupations:
  0.994 -0.000 -0.000  0.000 -0.001
 -0.000  1.000 -0.000 -0.001  0.000
 -0.000 -0.000  1.000  0.001  0.000
  0.000 -0.001  0.001  0.994 -0.000
 -0.001  0.000  0.000 -0.000  1.000
atomic mag. moment =  -2.82792
N of occupied +U levels =   13.518591
 --- exit write_ns ---

     negative rho (up, down):  3.250E-04 3.035E-04
 --- in v_hubbard ---
Hubbard energy    0.0000
 -------

     total cpu time spent up to now is        9.1 secs

     total energy              =    -735.39224016 Ry
     estimated scf accuracy    <       0.24547945 Ry

     total magnetization       =     0.70 Bohr mag/cell
     absolute magnetization    =     7.09 Bohr mag/cell

     iteration #  5     ecut=    30.00 Ry     beta= 0.30
     Davidson diagonalization with overlap
     ethr =  5.58E-04,  avg # of iterations =  1.3
 --- enter write_ns ---
 LDA+U parameters:
U( 1)     =  0.00000001
U( 2)     =  0.00000001
atom    1   Tr[ns(na)] (up, down, total) =   4.98344  1.93125  6.91469
   spin  1
    eigenvalues: 
  0.992  0.992  1.000  1.000  1.000
    eigenvectors:
  0.014  0.970  0.000  0.010  0.006
  0.009  0.002  0.333  0.012  0.644
  0.007  0.004  0.333  0.562  0.094
  0.970  0.014  0.000  0.006  0.010
  0.000  0.011  0.333  0.409  0.247
    occupations:
  0.992 -0.000 -0.000  0.000 -0.001
 -0.000  1.000 -0.000 -0.001  0.000
 -0.000 -0.000  1.000  0.001  0.000
  0.000 -0.001  0.001  0.992 -0.000
 -0.001  0.000  0.000 -0.000  1.000
   spin  2
    eigenvalues: 
  0.284  0.284  0.376  0.493  0.493
    eigenvectors:
  0.465  0.487  0.000  0.029  0.019
  0.030  0.002  0.333  0.017  0.618
  0.002  0.030  0.333  0.556  0.078
  0.487  0.465  0.000  0.019  0.029
  0.016  0.016  0.333  0.379  0.256
    occupations:
  0.294 -0.018 -0.018  0.000 -0.036
 -0.018  0.448 -0.036 -0.032  0.036
 -0.018 -0.036  0.448  0.032  0.036
  0.000 -0.032  0.032  0.294 -0.000
 -0.036  0.036  0.036 -0.000  0.448
atomic mag. moment =   3.05219
atom    2   Tr[ns(na)] (up, down, total) =   1.64265  4.97519  6.61784
   spin  1
    eigenvalues: 
  0.262  0.262  0.302  0.409  0.409
    eigenvectors:
  0.352  0.570  0.000  0.035  0.043
  0.051  0.001  0.333  0.058  0.557
  0.007  0.044  0.333  0.588  0.027
  0.570  0.352  0.000  0.043  0.035
  0.020  0.032  0.333  0.277  0.338
    occupations:
  0.273 -0.016 -0.016  0.000 -0.032
 -0.016  0.366 -0.032 -0.028  0.032
 -0.016 -0.032  0.366  0.028  0.032
  0.000 -0.028  0.028  0.273 -0.000
 -0.032  0.032  0.032 -0.000  0.366
   spin  2
    eigenvalues: 
  0.988  0.988  1.000  1.000  1.000
    eigenvectors:
  0.047  0.940  0.000  0.010  0.003
  0.008  0.001  0.333  0.001  0.657
  0.005  0.004  0.333  0.470  0.188
  0.940  0.047  0.000  0.003  0.010
  0.000  0.008  0.333  0.516  0.142
    occupations:
  0.988 -0.001 -0.001  0.000 -0.001
 -0.001  1.000 -0.000 -0.001  0.000
 -0.001 -0.000  1.000  0.001  0.000
  0.000 -0.001  0.001  0.988 -0.000
 -0.001  0.000  0.000 -0.000  1.000
atomic mag. moment =  -3.33255
N of occupied +U levels =   13.532524
 --- exit write_ns ---

     negative rho (up, down):  3.136E-04 3.069E-04
 --- in v_hubbard ---
Hubbard energy    0.0000
 -------

     total cpu time spent up to now is       10.7 secs

     total energy              =    -735.41123275 Ry
     estimated scf accuracy    <       0.04219188 Ry

     total magnetization       =    -0.26 Bohr mag/cell
     absolute magnetization    =     7.08 Bohr mag/cell

     iteration #  6     ecut=    30.00 Ry     beta= 0.30
     Davidson diagonalization with overlap
     ethr =  9.59E-05,  avg # of iterations =  1.2
 --- enter write_ns ---
 LDA+U parameters:
U( 1)     =  0.00000001
U( 2)     =  0.00000001
atom    1   Tr[ns(na)] (up, down, total) =   4.97795  1.81226  6.79021
   spin  1
    eigenvalues: 
  0.989  0.989  1.000  1.000  1.000
    eigenvectors:
  0.310  0.674  0.000  0.012  0.004
  0.010  0.000  0.333  0.000  0.656
  0.002  0.008  0.333  0.489  0.167
  0.674  0.310  0.000  0.004  0.012
  0.003  0.007  0.333  0.495  0.161
    occupations:
  0.989 -0.001 -0.001  0.000 -0.001
 -0.001  1.000 -0.000 -0.001  0.000
 -0.001 -0.000  1.000  0.001  0.000
  0.000 -0.001  0.001  0.989 -0.000
 -0.001  0.000  0.000 -0.000  1.000
   spin  2
    eigenvalues: 
  0.276  0.276  0.330  0.465  0.465
    eigenvectors:
  0.657  0.276  0.000  0.039  0.028
  0.035  0.009  0.333  0.019  0.603
  0.000  0.044  0.333  0.550  0.072
  0.276  0.657  0.000  0.028  0.039
  0.031  0.013  0.333  0.364  0.258
    occupations:
  0.289 -0.019 -0.019  0.000 -0.039
 -0.019  0.411 -0.041 -0.033  0.041
 -0.019 -0.041  0.411  0.033  0.041
  0.000 -0.033  0.033  0.289 -0.000
 -0.039  0.041  0.041 -0.000  0.411
atomic mag. moment =   3.16570
atom    2   Tr[ns(na)] (up, down, total) =   1.78502  4.97666  6.76168
   spin  1
    eigenvalues: 
  0.273  0.273  0.320  0.459  0.459
    eigenvectors:
  0.114  0.815  0.000  0.039  0.032
  0.046  0.001  0.333  0.028  0.592
  0.019  0.028  0.333  0.562  0.058
  0.815  0.114  0.000  0.032  0.039
  0.006  0.041  0.333  0.340  0.280
    occupations:
  0.286 -0.020 -0.020  0.000 -0.039
 -0.020  0.404 -0.042 -0.034  0.042
 -0.020 -0.042  0.404  0.034  0.042
  0.000 -0.034  0.034  0.286 -0.000
 -0.039  0.042  0.042 -0.000  0.404
   spin  2
    eigenvalues: 
  0.989  0.989  1.000  1.000  1.000
    eigenvectors:
  0.019  0.966  0.000  0.011  0.004
  0.009  0.001  0.333  0.000  0.656
  0.006  0.004  0.333  0.503  0.154
  0.966  0.019  0.000  0.004  0.011
  0.000  0.010  0.333  0.482  0.175
    occupations:
  0.989 -0.001 -0.001  0.000 -0.001
 -0.001  1.000 -0.000 -0.001  0.000
 -0.001 -0.000  1.000  0.001  0.000
  0.000 -0.001  0.001  0.989 -0.000
 -0.001  0.000  0.000 -0.000  1.000
atomic mag. moment =  -3.19164
N of occupied +U levels =   13.551892
 --- exit write_ns ---

     negative rho (up, down):  2.817E-04 2.775E-04
 --- in v_hubbard ---
Hubbard energy    0.0000
 -------

     total cpu time spent up to now is       12.4 secs

     total energy              =    -735.41364004 Ry
     estimated scf accuracy    <       0.00165491 Ry

     total magnetization       =    -0.02 Bohr mag/cell
     absolute magnetization    =     7.05 Bohr mag/cell

     iteration #  7     ecut=    30.00 Ry     beta= 0.30
     Davidson diagonalization with overlap
     ethr =  3.76E-06,  avg # of iterations =  4.2
 --- enter write_ns ---
 LDA+U parameters:
U( 1)     =  0.00000001
U( 2)     =  0.00000001
atom    1   Tr[ns(na)] (up, down, total) =   4.97689  1.79067  6.76756
   spin  1
    eigenvalues: 
  0.989  0.989  1.000  1.000  1.000
    eigenvectors:
  0.059  0.925  0.000  0.012  0.004
  0.010  0.001  0.333  0.000  0.655
  0.006  0.005  0.333  0.505  0.151
  0.925  0.059  0.000  0.004  0.012
  0.001  0.010  0.333  0.478  0.178
    occupations:
  0.989 -0.001 -0.001  0.000 -0.001
 -0.001  1.000 -0.000 -0.001  0.000
 -0.001 -0.000  1.000  0.001  0.000
  0.000 -0.001  0.001  0.989 -0.000
 -0.001  0.000  0.000 -0.000  1.000
   spin  2
    eigenvalues: 
  0.274  0.274  0.309  0.467  0.467
    eigenvectors:
  0.325  0.595  0.000  0.040  0.039
  0.052  0.001  0.333  0.040  0.574
  0.008  0.045  0.333  0.571  0.043
  0.595  0.325  0.000  0.039  0.040
  0.019  0.034  0.333  0.310  0.304
    occupations:
  0.289 -0.021 -0.021  0.000 -0.043
 -0.021  0.404 -0.047 -0.037  0.047
 -0.021 -0.047  0.404  0.037  0.047
  0.000 -0.037  0.037  0.289 -0.000
 -0.043  0.047  0.047 -0.000  0.404
atomic mag. moment =   3.18622
atom    2   Tr[ns(na)] (up, down, total) =   1.81235  4.97744  6.78979
   spin  1
    eigenvalues: 
  0.275  0.275  0.311  0.476  0.476
    eigenvectors:
  0.665  0.259  0.000  0.037  0.039
  0.040  0.011  0.333  0.044  0.571
  0.000  0.051  0.333  0.577  0.038
  0.259  0.665  0.000  0.039  0.037
  0.037  0.014  0.333  0.302  0.314
    occupations:
  0.290 -0.022 -0.022  0.000 -0.044
 -0.022  0.411 -0.050 -0.038  0.050
 -0.022 -0.050  0.411  0.038  0.050
  0.000 -0.038  0.038  0.290 -0.000
 -0.044  0.050  0.050 -0.000  0.411
   spin  2
    eigenvalues: 
  0.989  0.989  1.000  1.000  1.000
    eigenvectors:
  0.021  0.963  0.000  0.012  0.005
  0.009  0.001  0.333  0.001  0.655
  0.007  0.004  0.333  0.516  0.140
  0.963  0.021  0.000  0.005  0.012
  0.000  0.011  0.333  0.466  0.189
    occupations:
  0.989 -0.001 -0.001  0.000 -0.001
 -0.001  1.000 -0.000 -0.001  0.000
 -0.001 -0.000  1.000  0.001  0.000
  0.000 -0.001  0.001  0.989 -0.000
 -0.001  0.000  0.000 -0.000  1.000
atomic mag. moment =  -3.16509
N of occupied +U levels =   13.557349
 --- exit write_ns ---

     negative rho (up, down):  2.687E-04 2.653E-04
 --- in v_hubbard ---
Hubbard energy    0.0000
 -------

     total cpu time spent up to now is       14.2 secs

     total energy              =    -735.41416747 Ry
     estimated scf accuracy    <       0.00050662 Ry

     total magnetization       =     0.02 Bohr mag/cell
     absolute magnetization    =     7.05 Bohr mag/cell

     iteration #  8     ecut=    30.00 Ry     beta= 0.30
     Davidson diagonalization with overlap
     ethr =  1.15E-06,  avg # of iterations =  2.2
 --- enter write_ns ---
 LDA+U parameters:
U( 1)     =  0.00000001
U( 2)     =  0.00000001
atom    1   Tr[ns(na)] (up, down, total) =   4.97709  1.80405  6.78114
   spin  1
    eigenvalues: 
  0.989  0.989  1.000  1.000  1.000
    eigenvectors:
  0.153  0.829  0.000  0.012  0.005
  0.011  0.000  0.333  0.002  0.653
  0.004  0.007  0.333  0.524  0.132
  0.829  0.153  0.000  0.005  0.012
  0.002  0.010  0.333  0.457  0.198
    occupations:
  0.989 -0.001 -0.001  0.000 -0.001
 -0.001  1.000  0.000 -0.001 -0.000
 -0.001  0.000  1.000  0.001 -0.000
  0.000 -0.001  0.001  0.989 -0.000
 -0.001 -0.000 -0.000 -0.000  1.000
   spin  2
    eigenvalues: 
  0.274  0.274  0.296  0.480  0.480
    eigenvectors:
  0.345  0.575  0.000  0.046  0.034
  0.052  0.001  0.333  0.022  0.591
  0.008  0.046  0.333  0.548  0.065
  0.575  0.345  0.000  0.034  0.046
  0.020  0.033  0.333  0.349  0.264
    occupations:
  0.290 -0.023 -0.023  0.000 -0.046
 -0.023  0.408 -0.056 -0.040  0.056
 -0.023 -0.056  0.408  0.040  0.056
  0.000 -0.040  0.040  0.290 -0.000
 -0.046  0.056  0.056 -0.000  0.408
atomic mag. moment =   3.17304
atom    2   Tr[ns(na)] (up, down, total) =   1.79367  4.97652  6.77019
   spin  1
    eigenvalues: 
  0.272  0.272  0.291  0.479  0.479
    eigenvectors:
  0.799  0.121  0.000  0.039  0.042
  0.033  0.021  0.333  0.045  0.567
  0.001  0.053  0.333  0.576  0.037
  0.121  0.799  0.000  0.042  0.039
  0.047  0.007  0.333  0.298  0.315
    occupations:
  0.289 -0.023 -0.023  0.000 -0.046
 -0.023  0.405 -0.057 -0.040  0.057
 -0.023 -0.057  0.405  0.040  0.057
  0.000 -0.040  0.040  0.289 -0.000
 -0.046  0.057  0.057 -0.000  0.405
   spin  2
    eigenvalues: 
  0.988  0.988  1.000  1.000  1.000
    eigenvectors:
  0.264  0.719  0.000  0.011  0.006
  0.011  0.000  0.333  0.011  0.645
  0.003  0.009  0.333  0.558  0.098
  0.719  0.264  0.000  0.006  0.011
  0.003  0.008  0.333  0.415  0.241
    occupations:
  0.989 -0.001 -0.001  0.000 -0.001
 -0.001  1.000  0.000 -0.001 -0.000
 -0.001  0.000  1.000  0.001 -0.000
  0.000 -0.001  0.001  0.989 -0.000
 -0.001 -0.000 -0.000 -0.000  1.000
atomic mag. moment =  -3.18285
N of occupied +U levels =   13.551334
 --- exit write_ns ---

     negative rho (up, down):  2.644E-04 2.624E-04
 --- in v_hubbard ---
Hubbard energy    0.0000
 -------

     total cpu time spent up to now is       15.9 secs

     total energy              =    -735.41446326 Ry
     estimated scf accuracy    <       0.00017874 Ry

     total magnetization       =    -0.01 Bohr mag/cell
     absolute magnetization    =     7.05 Bohr mag/cell

     iteration #  9     ecut=    30.00 Ry     beta= 0.30
     Davidson diagonalization with overlap
     ethr =  4.06E-07,  avg # of iterations =  2.5
 --- enter write_ns ---
 LDA+U parameters:
U( 1)     =  0.00000001
U( 2)     =  0.00000001
atom    1   Tr[ns(na)] (up, down, total) =   4.97700  1.80754  6.78454
   spin  1
    eigenvalues: 
  0.989  0.989  1.000  1.000  1.000
    eigenvectors:
  0.146  0.836  0.000  0.014  0.004
  0.012  0.000  0.333  0.001  0.654
  0.004  0.007  0.333  0.471  0.183
  0.836  0.146  0.000  0.004  0.014
  0.002  0.010  0.333  0.510  0.145
    occupations:
  0.989 -0.001 -0.001  0.000 -0.001
 -0.001  1.000  0.000 -0.001 -0.000
 -0.001  0.000  1.000  0.001 -0.000
  0.000 -0.001  0.001  0.989 -0.000
 -0.001 -0.000 -0.000 -0.000  1.000
   spin  2
    eigenvalues: 
  0.274  0.274  0.281  0.489  0.489
    eigenvectors:
  0.329  0.588  0.000  0.039  0.044
  0.054  0.001  0.333  0.050  0.562
  0.009  0.047  0.333  0.578  0.033
  0.588  0.329  0.000  0.044  0.039
  0.020  0.035  0.333  0.289  0.322
    occupations:
  0.292 -0.024 -0.024  0.000 -0.048
 -0.024  0.408 -0.063 -0.042  0.063
 -0.024 -0.063  0.408  0.042  0.063
  0.000 -0.042  0.042  0.292 -0.000
 -0.048  0.063  0.063 -0.000  0.408
atomic mag. moment =   3.16946
atom    2   Tr[ns(na)] (up, down, total) =   1.79434  4.97634  6.77069
   spin  1
    eigenvalues: 
  0.272  0.272  0.277  0.487  0.487
    eigenvectors:
  0.434  0.482  0.000  0.043  0.042
  0.053  0.003  0.333  0.039  0.571
  0.005  0.052  0.333  0.567  0.043
  0.482  0.434  0.000  0.042  0.043
  0.027  0.030  0.333  0.309  0.301
    occupations:
  0.290 -0.024 -0.024  0.000 -0.049
 -0.024  0.405 -0.064 -0.042  0.064
 -0.024 -0.064  0.405  0.042  0.064
  0.000 -0.042  0.042  0.290 -0.000
 -0.049  0.064  0.064 -0.000  0.405
   spin  2
    eigenvalues: 
  0.988  0.988  1.000  1.000  1.000
    eigenvectors:
  0.033  0.949  0.000  0.011  0.006
  0.010  0.001  0.333  0.008  0.647
  0.007  0.005  0.333  0.549  0.106
  0.949  0.033  0.000  0.006  0.011
  0.000  0.011  0.333  0.425  0.230
    occupations:
  0.989 -0.001 -0.001  0.000 -0.001
 -0.001  1.000  0.000 -0.001 -0.000
 -0.001  0.000  1.000  0.001 -0.000
  0.000 -0.001  0.001  0.989 -0.000
 -0.001 -0.000 -0.000 -0.000  1.000
atomic mag. moment =  -3.18200
N of occupied +U levels =   13.555228
 --- exit write_ns ---

     negative rho (up, down):  2.612E-04 2.601E-04
 --- in v_hubbard ---
Hubbard energy    0.0000
 -------

     total cpu time spent up to now is       17.6 secs

     total energy              =    -735.41348837 Ry
     estimated scf accuracy    <       0.00016338 Ry

     total magnetization       =    -0.01 Bohr mag/cell
     absolute magnetization    =     7.05 Bohr mag/cell

     iteration # 10     ecut=    30.00 Ry     beta= 0.30
     Davidson diagonalization with overlap
     ethr =  3.71E-07,  avg # of iterations =  2.5
 --- enter write_ns ---
 LDA+U parameters:
U( 1)     =  0.00000001
U( 2)     =  0.00000001
atom    1   Tr[ns(na)] (up, down, total) =   4.97667  1.79595  6.77262
   spin  1
    eigenvalues: 
  0.988  0.988  1.000  1.000  1.000
    eigenvectors:
  0.190  0.792  0.011  0.008  0.000
  0.012  0.000  0.019  0.635  0.333
  0.004  0.009  0.577  0.077  0.333
  0.792  0.190  0.008  0.011  0.000
  0.002  0.010  0.385  0.270  0.333
    occupations:
  0.989 -0.001 -0.001  0.000 -0.001
 -0.001  1.000  0.000 -0.001 -0.000
 -0.001  0.000  1.000  0.001 -0.000
  0.000 -0.001  0.001  0.989 -0.000
 -0.001 -0.000 -0.000 -0.000  1.000
   spin  2
    eigenvalues: 
  0.259  0.271  0.271  0.497  0.497
    eigenvectors:
  0.000  0.709  0.203  0.051  0.037
  0.333  0.042  0.016  0.020  0.587
  0.333  0.000  0.059  0.540  0.067
  0.000  0.203  0.709  0.037  0.051
  0.333  0.046  0.013  0.351  0.257
    occupations:
  0.291 -0.026 -0.026  0.000 -0.052
 -0.026  0.405 -0.073 -0.045  0.073
 -0.026 -0.073  0.405  0.045  0.073
  0.000 -0.045  0.045  0.291 -0.000
 -0.052  0.073  0.073 -0.000  0.405
atomic mag. moment =   3.18072
atom    2   Tr[ns(na)] (up, down, total) =   1.79882  4.97671  6.77553
   spin  1
    eigenvalues: 
  0.258  0.271  0.271  0.499  0.499
    eigenvectors:
  0.000  0.506  0.406  0.046  0.042
  0.333  0.053  0.006  0.034  0.574
  0.333  0.002  0.056  0.561  0.048
  0.000  0.406  0.506  0.042  0.046
  0.333  0.032  0.026  0.317  0.291
    occupations:
  0.291 -0.026 -0.026  0.000 -0.053
 -0.026  0.406 -0.074 -0.046  0.074
 -0.026 -0.074  0.406  0.046  0.074
  0.000 -0.046  0.046  0.291 -0.000
 -0.053  0.074  0.074 -0.000  0.406
   spin  2
    eigenvalues: 
  0.989  0.989  1.000  1.000  1.000
    eigenvectors:
  0.163  0.818  0.011  0.008  0.000
  0.012  0.000  0.019  0.635  0.333
  0.004  0.008  0.576  0.078  0.333
  0.818  0.163  0.008  0.011  0.000
  0.002  0.010  0.387  0.268  0.333
    occupations:
  0.989 -0.001 -0.001  0.000 -0.001
 -0.001  1.000  0.000 -0.001 -0.000
 -0.001  0.000  1.000  0.001 -0.000
  0.000 -0.001  0.001  0.989 -0.000
 -0.001 -0.000 -0.000 -0.000  1.000
atomic mag. moment =  -3.17789
N of occupied +U levels =   13.548143
 --- exit write_ns ---

     negative rho (up, down):  2.646E-04 2.639E-04
 --- in v_hubbard ---
Hubbard energy    0.0000
 -------

     total cpu time spent up to now is       19.4 secs

     total energy              =    -735.41518785 Ry
     estimated scf accuracy    <       0.00007198 Ry

     total magnetization       =     0.00 Bohr mag/cell
     absolute magnetization    =     7.05 Bohr mag/cell

     iteration # 11     ecut=    30.00 Ry     beta= 0.30
     Davidson diagonalization with overlap
     ethr =  1.64E-07,  avg # of iterations =  2.2
 --- enter write_ns ---
 LDA+U parameters:
U( 1)     =  0.00000001
U( 2)     =  0.00000001
atom    1   Tr[ns(na)] (up, down, total) =   4.97687  1.80118  6.77804
   spin  1
    eigenvalues: 
  0.989  0.989  1.000  1.000  1.000
    eigenvectors:
  0.074  0.908  0.014  0.004  0.000
  0.011  0.001  0.000  0.654  0.333
  0.006  0.006  0.488  0.167  0.333
  0.908  0.074  0.004  0.014  0.000
  0.001  0.011  0.494  0.160  0.333
    occupations:
  0.989 -0.001 -0.001  0.000 -0.001
 -0.001  1.000  0.000 -0.001 -0.000
 -0.001  0.000  1.000  0.001 -0.000
  0.000 -0.001  0.001  0.989 -0.000
 -0.001 -0.000 -0.000 -0.000  1.000
   spin  2
    eigenvalues: 
  0.259  0.272  0.272  0.499  0.499
    eigenvectors:
  0.000  0.118  0.794  0.046  0.042
  0.333  0.057  0.001  0.035  0.573
  0.333  0.023  0.035  0.561  0.047
  0.000  0.794  0.118  0.042  0.046
  0.333  0.008  0.051  0.316  0.293
    occupations:
  0.292 -0.026 -0.026  0.000 -0.052
 -0.026  0.406 -0.073 -0.045  0.073
 -0.026 -0.073  0.406  0.045  0.073
  0.000 -0.045  0.045  0.292 -0.000
 -0.052  0.073  0.073 -0.000  0.406
atomic mag. moment =   3.17569
atom    2   Tr[ns(na)] (up, down, total) =   1.79996  4.97674  6.77670
   spin  1
    eigenvalues: 
  0.257  0.272  0.272  0.500  0.500
    eigenvectors:
  0.000  0.796  0.116  0.055  0.033
  0.333  0.035  0.023  0.010  0.598
  0.333  0.001  0.057  0.519  0.089
  0.000  0.116  0.796  0.033  0.055
  0.333  0.051  0.007  0.383  0.225
    occupations:
  0.292 -0.026 -0.026  0.000 -0.053
 -0.026  0.406 -0.074 -0.046  0.074
 -0.026 -0.074  0.406  0.046  0.074
  0.000 -0.046  0.046  0.292 -0.000
 -0.053  0.074  0.074 -0.000  0.406
   spin  2
    eigenvalues: 
  0.989  0.989  1.000  1.000  1.000
    eigenvectors:
  0.005  0.977  0.011  0.007  0.000
  0.010  0.002  0.015  0.640  0.333
  0.008  0.004  0.568  0.086  0.333
  0.977  0.005  0.007  0.011  0.000
  0.000  0.012  0.399  0.256  0.333
    occupations:
  0.989 -0.001 -0.001  0.000 -0.001
 -0.001  1.000  0.000 -0.001 -0.000
 -0.001  0.000  1.000  0.001 -0.000
  0.000 -0.001  0.001  0.989 -0.000
 -0.001 -0.000 -0.000 -0.000  1.000
atomic mag. moment =  -3.17678
N of occupied +U levels =   13.554739
 --- exit write_ns ---

     negative rho (up, down):  2.649E-04 2.646E-04
 --- in v_hubbard ---
Hubbard energy    0.0000
 -------

     total cpu time spent up to now is       21.2 secs

     total energy              =    -735.41556586 Ry
     estimated scf accuracy    <       0.00003995 Ry

     total magnetization       =    -0.00 Bohr mag/cell
     absolute magnetization    =     7.05 Bohr mag/cell

     iteration # 12     ecut=    30.00 Ry     beta= 0.30
     Davidson diagonalization with overlap
     ethr =  9.08E-08,  avg # of iterations =  2.0
 --- enter write_ns ---
 LDA+U parameters:
U( 1)     =  0.00000001
U( 2)     =  0.00000001
atom    1   Tr[ns(na)] (up, down, total) =   4.97690  1.80114  6.77803
   spin  1
    eigenvalues: 
  0.989  0.989  1.000  1.000  1.000
    eigenvectors:
  0.000  0.982  0.012  0.006  0.000
  0.009  0.003  0.009  0.646  0.333
  0.009  0.003  0.551  0.103  0.333
  0.982  0.000  0.006  0.012  0.000
  0.000  0.012  0.422  0.232  0.333
    occupations:
  0.989 -0.001 -0.001  0.000 -0.001
 -0.001  1.000  0.000 -0.001 -0.000
 -0.001  0.000  1.000  0.001 -0.000
  0.000 -0.001  0.001  0.989 -0.000
 -0.001 -0.000 -0.000 -0.000  1.000
   spin  2
    eigenvalues: 
  0.258  0.272  0.272  0.500  0.500
    eigenvectors:
  0.000  0.459  0.454  0.036  0.051
  0.333  0.054  0.004  0.072  0.537
  0.333  0.004  0.054  0.590  0.018
  0.000  0.454  0.459  0.051  0.036
  0.333  0.029  0.029  0.251  0.358
    occupations:
  0.292 -0.026 -0.026  0.000 -0.052
 -0.026  0.406 -0.074 -0.045  0.074
 -0.026 -0.074  0.406  0.045  0.074
  0.000 -0.045  0.045  0.292 -0.000
 -0.052  0.074  0.074 -0.000  0.406
atomic mag. moment =   3.17576
atom    2   Tr[ns(na)] (up, down, total) =   1.79977  4.97677  6.77654
   spin  1
    eigenvalues: 
  0.256  0.272  0.272  0.500  0.500
    eigenvectors:
  0.000  0.266  0.647  0.049  0.039
  0.333  0.058  0.000  0.025  0.584
  0.333  0.012  0.046  0.548  0.060
  0.000  0.647  0.266  0.039  0.049
  0.333  0.017  0.041  0.340  0.269
    occupations:
  0.292 -0.026 -0.026  0.000 -0.053
 -0.026  0.406 -0.075 -0.046  0.075
 -0.026 -0.075  0.406  0.046  0.075
  0.000 -0.046  0.046  0.292 -0.000
 -0.053  0.075  0.075 -0.000  0.406
   spin  2
    eigenvalues: 
  0.989  0.989  1.000  1.000  1.000
    eigenvectors:
  0.155  0.827  0.013  0.005  0.000
  0.012  0.000  0.000  0.655  0.333
  0.004  0.008  0.495  0.160  0.333
  0.827  0.155  0.005  0.013  0.000
  0.002  0.010  0.487  0.168  0.333
    occupations:
  0.989 -0.001 -0.001  0.000 -0.001
 -0.001  1.000  0.000 -0.001 -0.000
 -0.001  0.000  1.000  0.001 -0.000
  0.000 -0.001  0.001  0.989 -0.000
 -0.001 -0.000 -0.000 -0.000  1.000
atomic mag. moment =  -3.17699
N of occupied +U levels =   13.554574
 --- exit write_ns ---

     negative rho (up, down):  2.645E-04 2.643E-04
 --- in v_hubbard ---
Hubbard energy    0.0000
 -------

     total cpu time spent up to now is       22.9 secs

     total energy              =    -735.41561664 Ry
     estimated scf accuracy    <       0.00016787 Ry

     total magnetization       =    -0.00 Bohr mag/cell
     absolute magnetization    =     7.05 Bohr mag/cell

     iteration # 13     ecut=    30.00 Ry     beta= 0.30
     Davidson diagonalization with overlap
     ethr =  9.08E-08,  avg # of iterations =  2.5
 --- enter write_ns ---
 LDA+U parameters:
U( 1)     =  0.00000001
U( 2)     =  0.00000001
atom    1   Tr[ns(na)] (up, down, total) =   4.97685  1.80096  6.77781
   spin  1
    eigenvalues: 
  0.989  0.989  1.000  1.000  1.000
    eigenvectors:
  0.145  0.837  0.012  0.006  0.000
  0.012  0.000  0.005  0.650  0.333
  0.005  0.008  0.536  0.119  0.333
  0.837  0.145  0.006  0.012  0.000
  0.002  0.011  0.441  0.213  0.333
    occupations:
  0.989 -0.001 -0.001  0.000 -0.001
 -0.001  1.000  0.000 -0.001 -0.000
 -0.001  0.000  1.000  0.001 -0.000
  0.000 -0.001  0.001  0.989 -0.000
 -0.001 -0.000 -0.000 -0.000  1.000
   spin  2
    eigenvalues: 
  0.249  0.271  0.271  0.504  0.504
    eigenvectors:
  0.000  0.144  0.766  0.039  0.051
  0.333  0.059  0.001  0.062  0.545
  0.333  0.021  0.039  0.583  0.024
  0.000  0.766  0.144  0.051  0.039
  0.333  0.010  0.050  0.265  0.341
    occupations:
  0.292 -0.027 -0.027  0.000 -0.054
 -0.027  0.405 -0.078 -0.047  0.078
 -0.027 -0.078  0.405  0.047  0.078
  0.000 -0.047  0.047  0.292 -0.000
 -0.054  0.078  0.078 -0.000  0.405
atomic mag. moment =   3.17590
atom    2   Tr[ns(na)] (up, down, total) =   1.79966  4.97674  6.77640
   spin  1
    eigenvalues: 
  0.248  0.271  0.271  0.505  0.505
    eigenvectors:
  0.000  0.257  0.653  0.041  0.049
  0.333  0.060  0.000  0.055  0.551
  0.333  0.013  0.047  0.579  0.028
  0.000  0.653  0.257  0.049  0.041
  0.333  0.017  0.043  0.276  0.331
    occupations:
  0.292 -0.027 -0.027  0.000 -0.055
 -0.027  0.405 -0.078 -0.047  0.078
 -0.027 -0.078  0.405  0.047  0.078
  0.000 -0.047  0.047  0.292 -0.000
 -0.055  0.078  0.078 -0.000  0.405
   spin  2
    eigenvalues: 
  0.989  0.989  1.000  1.000  1.000
    eigenvectors:
  0.000  0.981  0.013  0.005  0.000
  0.009  0.003  0.001  0.653  0.333
  0.009  0.003  0.517  0.137  0.333
  0.981  0.000  0.005  0.013  0.000
  0.000  0.012  0.463  0.191  0.333
    occupations:
  0.989 -0.001 -0.001  0.000 -0.001
 -0.001  1.000  0.000 -0.001 -0.000
 -0.001  0.000  1.000  0.001 -0.000
  0.000 -0.001  0.001  0.989 -0.000
 -0.001 -0.000 -0.000 -0.000  1.000
atomic mag. moment =  -3.17708
N of occupied +U levels =   13.554205
 --- exit write_ns ---

     negative rho (up, down):  2.644E-04 2.643E-04
 --- in v_hubbard ---
Hubbard energy    0.0000
 -------

     total cpu time spent up to now is       24.7 secs

     total energy              =    -735.41573069 Ry
     estimated scf accuracy    <       0.00006316 Ry

     total magnetization       =    -0.00 Bohr mag/cell
     absolute magnetization    =     7.05 Bohr mag/cell

     iteration # 14     ecut=    30.00 Ry     beta= 0.30
     Davidson diagonalization with overlap
     ethr =  9.08E-08,  avg # of iterations =  2.2
 --- enter write_ns ---
 LDA+U parameters:
U( 1)     =  0.00000001
U( 2)     =  0.00000001
atom    1   Tr[ns(na)] (up, down, total) =   4.97680  1.80017  6.77697
   spin  1
    eigenvalues: 
  0.989  0.989  1.000  1.000  1.000
    eigenvectors:
  0.131  0.850  0.012  0.007  0.000
  0.012  0.000  0.011  0.643  0.333
  0.005  0.008  0.559  0.095  0.333
  0.850  0.131  0.007  0.012  0.000
  0.002  0.011  0.411  0.243  0.333
    occupations:
  0.989 -0.001 -0.001  0.000 -0.001
 -0.001  1.000  0.000 -0.001 -0.000
 -0.001  0.000  1.000  0.001 -0.000
  0.000 -0.001  0.001  0.989 -0.000
 -0.001 -0.000 -0.000 -0.000  1.000
   spin  2
    eigenvalues: 
  0.244  0.271  0.271  0.507  0.507
    eigenvectors:
  0.000  0.552  0.356  0.046  0.046
  0.333  0.053  0.008  0.041  0.565
  0.333  0.001  0.059  0.565  0.041
  0.000  0.356  0.552  0.046  0.046
  0.333  0.037  0.024  0.303  0.303
    occupations:
  0.292 -0.028 -0.028  0.000 -0.056
 -0.028  0.405 -0.080 -0.048  0.080
 -0.028 -0.080  0.405  0.048  0.080
  0.000 -0.048  0.048  0.292 -0.000
 -0.056  0.080  0.080 -0.000  0.405
atomic mag. moment =   3.17663
atom    2   Tr[ns(na)] (up, down, total) =   1.79972  4.97674  6.77645
   spin  1
    eigenvalues: 
  0.243  0.271  0.271  0.507  0.507
    eigenvectors:
  0.000  0.346  0.562  0.049  0.042
  0.333  0.060  0.001  0.030  0.575
  0.333  0.008  0.053  0.553  0.052
  0.000  0.562  0.346  0.042  0.049
  0.333  0.023  0.038  0.325  0.281
    occupations:
  0.292 -0.028 -0.028  0.000 -0.056
 -0.028  0.405 -0.081 -0.048  0.081
 -0.028 -0.081  0.405  0.048  0.081
  0.000 -0.048  0.048  0.292 -0.000
 -0.056  0.081  0.081 -0.000  0.405
   spin  2
    eigenvalues: 
  0.989  0.989  1.000  1.000  1.000
    eigenvectors:
  0.212  0.770  0.010  0.008  0.000
  0.012  0.000  0.030  0.624  0.333
  0.004  0.009  0.594  0.060  0.333
  0.770  0.212  0.008  0.010  0.000
  0.003  0.010  0.358  0.297  0.333
    occupations:
  0.989 -0.001 -0.001  0.000 -0.001
 -0.001  1.000  0.000 -0.001 -0.000
 -0.001  0.000  1.000  0.001 -0.000
  0.000 -0.001  0.001  0.989 -0.000
 -0.001 -0.000 -0.000 -0.000  1.000
atomic mag. moment =  -3.17702
N of occupied +U levels =   13.553426
 --- exit write_ns ---

     negative rho (up, down):  2.644E-04 2.644E-04
 --- in v_hubbard ---
Hubbard energy    0.0000
 -------

     total cpu time spent up to now is       26.3 secs

     total energy              =    -735.41582987 Ry
     estimated scf accuracy    <       0.00004508 Ry

     total magnetization       =    -0.00 Bohr mag/cell
     absolute magnetization    =     7.05 Bohr mag/cell

     iteration # 15     ecut=    30.00 Ry     beta= 0.30
     Davidson diagonalization with overlap
     ethr =  9.08E-08,  avg # of iterations =  1.7
 --- enter write_ns ---
 LDA+U parameters:
U( 1)     =  0.00000001
U( 2)     =  0.00000001
atom    1   Tr[ns(na)] (up, down, total) =   4.97680  1.80033  6.77713
   spin  1
    eigenvalues: 
  0.989  0.989  1.000  1.000  1.000
    eigenvectors:
  0.015  0.966  0.012  0.007  0.000
  0.011  0.002  0.010  0.645  0.333
  0.008  0.005  0.554  0.100  0.333
  0.966  0.015  0.007  0.012  0.000
  0.000  0.012  0.417  0.237  0.333
    occupations:
  0.989 -0.001 -0.001  0.000 -0.001
 -0.001  1.000  0.000 -0.001 -0.000
 -0.001  0.000  1.000  0.001 -0.000
  0.000 -0.001  0.001  0.989 -0.000
 -0.001 -0.000 -0.000 -0.000  1.000
   spin  2
    eigenvalues: 
  0.242  0.271  0.271  0.508  0.508
    eigenvectors:
  0.000  0.468  0.440  0.044  0.048
  0.333  0.057  0.005  0.047  0.559
  0.333  0.004  0.058  0.571  0.035
  0.000  0.440  0.468  0.048  0.044
  0.333  0.032  0.030  0.291  0.315
    occupations:
  0.293 -0.028 -0.028  0.000 -0.056
 -0.028  0.405 -0.081 -0.048  0.081
 -0.028 -0.081  0.405  0.048  0.081
  0.000 -0.048  0.048  0.293 -0.000
 -0.056  0.081  0.081 -0.000  0.405
atomic mag. moment =   3.17647
atom    2   Tr[ns(na)] (up, down, total) =   1.79971  4.97673  6.77644
   spin  1
    eigenvalues: 
  0.241  0.271  0.271  0.509  0.509
    eigenvectors:
  0.000  0.243  0.665  0.036  0.056
  0.333  0.061  0.000  0.080  0.526
  0.333  0.014  0.047  0.591  0.014
  0.000  0.665  0.243  0.056  0.036
  0.333  0.016  0.045  0.237  0.368
    occupations:
  0.293 -0.028 -0.028  0.000 -0.056
 -0.028  0.405 -0.082 -0.049  0.082
 -0.028 -0.082  0.405  0.049  0.082
  0.000 -0.049  0.049  0.293 -0.000
 -0.056  0.082  0.082 -0.000  0.405
   spin  2
    eigenvalues: 
  0.989  0.989  1.000  1.000  1.000
    eigenvectors:
  0.148  0.833  0.012  0.007  0.000
  0.012  0.000  0.008  0.646  0.333
  0.005  0.008  0.549  0.105  0.333
  0.833  0.148  0.007  0.012  0.000
  0.002  0.011  0.425  0.230  0.333
    occupations:
  0.989 -0.001 -0.001  0.000 -0.001
 -0.001  1.000  0.000 -0.001 -0.000
 -0.001  0.000  1.000  0.001 -0.000
  0.000 -0.001  0.001  0.989 -0.000
 -0.001 -0.000 -0.000 -0.000  1.000
atomic mag. moment =  -3.17702
N of occupied +U levels =   13.553572
 --- exit write_ns ---

     negative rho (up, down):  2.647E-04 2.648E-04
 --- in v_hubbard ---
Hubbard energy    0.0000
 -------

     total cpu time spent up to now is       28.0 secs

     total energy              =    -735.41585628 Ry
     estimated scf accuracy    <       0.00007061 Ry

     total magnetization       =    -0.00 Bohr mag/cell
     absolute magnetization    =     7.05 Bohr mag/cell

     iteration # 16     ecut=    30.00 Ry     beta= 0.30
     Davidson diagonalization with overlap
     ethr =  9.08E-08,  avg # of iterations =  1.2
 --- enter write_ns ---
 LDA+U parameters:
U( 1)     =  0.00000001
U( 2)     =  0.00000001
atom    1   Tr[ns(na)] (up, down, total) =   4.97681  1.80012  6.77693
   spin  1
    eigenvalues: 
  0.989  0.989  1.000  1.000  1.000
    eigenvectors:
  0.039  0.942  0.009  0.010  0.000
  0.011  0.001  0.049  0.606  0.333
  0.007  0.005  0.615  0.039  0.333
  0.942  0.039  0.010  0.009  0.000
  0.001  0.012  0.318  0.337  0.333
    occupations:
  0.989 -0.001 -0.001  0.000 -0.001
 -0.001  1.000  0.000 -0.001 -0.000
 -0.001  0.000  1.000  0.001 -0.000
  0.000 -0.001  0.001  0.989 -0.000
 -0.001 -0.000 -0.000 -0.000  1.000
   spin  2
    eigenvalues: 
  0.240  0.271  0.271  0.509  0.509
    eigenvectors:
  0.000  0.788  0.119  0.050  0.042
  0.333  0.037  0.024  0.028  0.577
  0.333  0.001  0.060  0.550  0.055
  0.000  0.119  0.788  0.042  0.050
  0.333  0.053  0.008  0.329  0.276
    occupations:
  0.293 -0.028 -0.028  0.000 -0.056
 -0.028  0.405 -0.082 -0.049  0.082
 -0.028 -0.082  0.405  0.049  0.082
  0.000 -0.049  0.049  0.293 -0.000
 -0.056  0.082  0.082 -0.000  0.405
atomic mag. moment =   3.17670
atom    2   Tr[ns(na)] (up, down, total) =   1.79959  4.97675  6.77634
   spin  1
    eigenvalues: 
  0.239  0.270  0.270  0.510  0.510
    eigenvectors:
  0.000  0.207  0.701  0.047  0.045
  0.333  0.062  0.000  0.037  0.568
  0.333  0.017  0.045  0.561  0.044
  0.000  0.701  0.207  0.045  0.047
  0.333  0.014  0.048  0.310  0.295
    occupations:
  0.293 -0.028 -0.028  0.000 -0.057
 -0.028  0.405 -0.083 -0.049  0.083
 -0.028 -0.083  0.405  0.049  0.083
  0.000 -0.049  0.049  0.293 -0.000
 -0.057  0.083  0.083 -0.000  0.405
   spin  2
    eigenvalues: 
  0.989  0.989  1.000  1.000  1.000
    eigenvectors:
  0.206  0.775  0.013  0.005  0.000
  0.012  0.000  0.001  0.653  0.333
  0.004  0.009  0.516  0.138  0.333
  0.775  0.206  0.005  0.013  0.000
  0.003  0.010  0.464  0.190  0.333
    occupations:
  0.989 -0.001 -0.001  0.000 -0.001
 -0.001  1.000  0.000 -0.001 -0.000
 -0.001  0.000  1.000  0.001 -0.000
  0.000 -0.001  0.001  0.989 -0.000
 -0.001 -0.000 -0.000 -0.000  1.000
atomic mag. moment =  -3.17716
N of occupied +U levels =   13.553272
 --- exit write_ns ---

     negative rho (up, down):  2.644E-04 2.645E-04
 --- in v_hubbard ---
Hubbard energy    0.0000
 -------

     total cpu time spent up to now is       29.7 secs

     total energy              =    -735.41590251 Ry
     estimated scf accuracy    <       0.00009133 Ry

     total magnetization       =    -0.00 Bohr mag/cell
     absolute magnetization    =     7.05 Bohr mag/cell

     iteration # 17     ecut=    30.00 Ry     beta= 0.30
     Davidson diagonalization with overlap
     ethr =  9.08E-08,  avg # of iterations =  2.2
 --- enter write_ns ---
 LDA+U parameters:
U( 1)     =  0.00000001
U( 2)     =  0.00000001
atom    1   Tr[ns(na)] (up, down, total) =   4.97676  1.79964  6.77641
   spin  1
    eigenvalues: 
  0.989  0.989  1.000  1.000  1.000
    eigenvectors:
  0.000  0.981  0.011  0.008  0.000
  0.009  0.003  0.017  0.637  0.333
  0.010  0.003  0.571  0.083  0.333
  0.981  0.000  0.008  0.011  0.000
  0.000  0.013  0.393  0.261  0.333
    occupations:
  0.989 -0.001 -0.001  0.000 -0.001
 -0.001  1.000  0.000 -0.001 -0.000
 -0.001  0.000  1.000  0.001 -0.000
  0.000 -0.001  0.001  0.989 -0.000
 -0.001 -0.000 -0.000 -0.000  1.000
   spin  2
    eigenvalues: 
  0.236  0.270  0.270  0.512  0.512
    eigenvectors:
  0.000  0.454  0.452  0.040  0.053
  0.333  0.058  0.004  0.064  0.540
  0.333  0.004  0.058  0.582  0.022
  0.000  0.452  0.454  0.053  0.040
  0.333  0.031  0.031  0.260  0.344
    occupations:
  0.293 -0.029 -0.029  0.000 -0.057
 -0.029  0.405 -0.084 -0.050  0.084
 -0.029 -0.084  0.405  0.050  0.084
  0.000 -0.050  0.050  0.293 -0.000
 -0.057  0.084  0.084 -0.000  0.405
atomic mag. moment =   3.17712
atom    2   Tr[ns(na)] (up, down, total) =   1.79944  4.97673  6.77617
   spin  1
    eigenvalues: 
  0.235  0.270  0.270  0.512  0.512
    eigenvectors:
  0.000  0.315  0.591  0.044  0.050
  0.333  0.062  0.001  0.052  0.552
  0.333  0.010  0.052  0.573  0.031
  0.000  0.591  0.315  0.050  0.044
  0.333  0.022  0.041  0.281  0.323
    occupations:
  0.293 -0.029 -0.029  0.000 -0.058
 -0.029  0.405 -0.085 -0.050  0.085
 -0.029 -0.085  0.405  0.050  0.085
  0.000 -0.050  0.050  0.293 -0.000
 -0.058  0.085  0.085 -0.000  0.405
   spin  2
    eigenvalues: 
  0.989  0.989  1.000  1.000  1.000
    eigenvectors:
  0.247  0.734  0.011  0.008  0.000
  0.013  0.000  0.017  0.637  0.333
  0.003  0.010  0.572  0.082  0.333
  0.734  0.247  0.008  0.011  0.000
  0.003  0.009  0.393  0.261  0.333
    occupations:
  0.989 -0.001 -0.001  0.000 -0.001
 -0.001  1.000  0.000 -0.001 -0.000
 -0.001  0.000  1.000  0.001 -0.000
  0.000 -0.001  0.001  0.989 -0.000
 -0.001 -0.000 -0.000 -0.000  1.000
atomic mag. moment =  -3.17728
N of occupied +U levels =   13.552579
 --- exit write_ns ---

     negative rho (up, down):  2.642E-04 2.642E-04
 --- in v_hubbard ---
Hubbard energy    0.0000
 -------

     total cpu time spent up to now is       31.4 secs

     total energy              =    -735.41592738 Ry
     estimated scf accuracy    <       0.00003896 Ry

     total magnetization       =     0.00 Bohr mag/cell
     absolute magnetization    =     7.05 Bohr mag/cell

     iteration # 18     ecut=    30.00 Ry     beta= 0.30
     Davidson diagonalization with overlap
     ethr =  8.86E-08,  avg # of iterations =  1.8
 --- enter write_ns ---
 LDA+U parameters:
U( 1)     =  0.00000001
U( 2)     =  0.00000001
atom    1   Tr[ns(na)] (up, down, total) =   4.97672  1.79919  6.77591
   spin  1
    eigenvalues: 
  0.989  0.989  1.000  1.000  1.000
    eigenvectors:
  0.118  0.863  0.012  0.007  0.000
  0.012  0.000  0.009  0.645  0.333
  0.005  0.008  0.553  0.101  0.333
  0.863  0.118  0.007  0.012  0.000
  0.002  0.011  0.418  0.236  0.333
    occupations:
  0.989 -0.001 -0.001  0.000 -0.001
 -0.001  1.000  0.000 -0.001 -0.000
 -0.001  0.000  1.000  0.001 -0.000
  0.000 -0.001  0.001  0.989 -0.000
 -0.001 -0.000 -0.000 -0.000  1.000
   spin  2
    eigenvalues: 
  0.232  0.270  0.270  0.514  0.514
    eigenvectors:
  0.000  0.580  0.325  0.041  0.054
  0.333  0.054  0.010  0.065  0.538
  0.333  0.001  0.062  0.582  0.021
  0.000  0.325  0.580  0.054  0.041
  0.333  0.041  0.023  0.258  0.345
    occupations:
  0.293 -0.029 -0.029  0.000 -0.058
 -0.029  0.404 -0.086 -0.051  0.086
 -0.029 -0.086  0.404  0.051  0.086
  0.000 -0.051  0.051  0.293 -0.000
 -0.058  0.086  0.086 -0.000  0.404
atomic mag. moment =   3.17753
atom    2   Tr[ns(na)] (up, down, total) =   1.79920  4.97670  6.77590
   spin  1
    eigenvalues: 
  0.232  0.270  0.270  0.514  0.514
    eigenvectors:
  0.000  0.739  0.166  0.055  0.040
  0.333  0.043  0.021  0.019  0.584
  0.333  0.000  0.063  0.534  0.069
  0.000  0.166  0.739  0.040  0.055
  0.333  0.052  0.012  0.352  0.252
    occupations:
  0.293 -0.029 -0.029  0.000 -0.058
 -0.029  0.404 -0.086 -0.051  0.086
 -0.029 -0.086  0.404  0.051  0.086
  0.000 -0.051  0.051  0.293 -0.000
 -0.058  0.086  0.086 -0.000  0.404
   spin  2
    eigenvalues: 
  0.989  0.989  1.000  1.000  1.000
    eigenvectors:
  0.358  0.623  0.015  0.004  0.000
  0.013  0.000  0.001  0.653  0.333
  0.002  0.011  0.470  0.184  0.333
  0.623  0.358  0.004  0.015  0.000
  0.005  0.008  0.510  0.144  0.333
    occupations:
  0.989 -0.001 -0.001  0.000 -0.001
 -0.001  1.000  0.000 -0.001 -0.000
 -0.001  0.000  1.000  0.001 -0.000
  0.000 -0.001  0.001  0.989 -0.000
 -0.001 -0.000 -0.000 -0.000  1.000
atomic mag. moment =  -3.17750
N of occupied +U levels =   13.551809
 --- exit write_ns ---

     negative rho (up, down):  2.635E-04 2.635E-04
 --- in v_hubbard ---
Hubbard energy    0.0000
 -------

     total cpu time spent up to now is       33.0 secs

     total energy              =    -735.41576662 Ry
     estimated scf accuracy    <       0.00001583 Ry

     total magnetization       =     0.00 Bohr mag/cell
     absolute magnetization    =     7.05 Bohr mag/cell

     iteration # 19     ecut=    30.00 Ry     beta= 0.30
     Davidson diagonalization with overlap
     ethr =  3.60E-08,  avg # of iterations =  3.2
 --- enter write_ns ---
 LDA+U parameters:
U( 1)     =  0.00000001
U( 2)     =  0.00000001
atom    1   Tr[ns(na)] (up, down, total) =   4.97661  1.79868  6.77529
   spin  1
    eigenvalues: 
  0.988  0.988  1.000  1.000  1.000
    eigenvectors:
  0.316  0.665  0.014  0.006  0.000
  0.013  0.000  0.002  0.652  0.333
  0.002  0.011  0.518  0.136  0.333
  0.665  0.316  0.006  0.014  0.000
  0.004  0.009  0.461  0.193  0.333
    occupations:
  0.989 -0.001 -0.001  0.000 -0.001
 -0.001  1.000  0.000 -0.001 -0.000
 -0.001  0.000  1.000  0.001 -0.000
  0.000 -0.001  0.001  0.989 -0.000
 -0.001 -0.000 -0.000 -0.000  1.000
   spin  2
    eigenvalues: 
  0.226  0.269  0.269  0.517  0.517
    eigenvectors:
  0.000  0.319  0.583  0.045  0.053
  0.333  0.064  0.001  0.053  0.549
  0.333  0.010  0.055  0.572  0.029
  0.000  0.583  0.319  0.053  0.045
  0.333  0.023  0.042  0.278  0.324
    occupations:
  0.293 -0.030 -0.030  0.000 -0.060
 -0.030  0.404 -0.089 -0.052  0.089
 -0.030 -0.089  0.404  0.052  0.089
  0.000 -0.052  0.052  0.293 -0.000
 -0.060  0.089  0.089 -0.000  0.404
atomic mag. moment =   3.17792
atom    2   Tr[ns(na)] (up, down, total) =   1.79889  4.97661  6.77550
   spin  1
    eigenvalues: 
  0.226  0.269  0.269  0.517  0.517
    eigenvectors:
  0.000  0.247  0.655  0.054  0.044
  0.333  0.065  0.000  0.027  0.575
  0.333  0.015  0.050  0.546  0.056
  0.000  0.655  0.247  0.044  0.054
  0.333  0.018  0.047  0.330  0.272
    occupations:
  0.293 -0.030 -0.030  0.000 -0.060
 -0.030  0.404 -0.089 -0.052  0.089
 -0.030 -0.089  0.404  0.052  0.089
  0.000 -0.052  0.052  0.293 -0.000
 -0.060  0.089  0.089 -0.000  0.404
   spin  2
    eigenvalues: 
  0.989  0.989  1.000  1.000  1.000
    eigenvectors:
  0.165  0.816  0.012  0.007  0.000
  0.013  0.000  0.010  0.643  0.333
  0.004  0.008  0.556  0.098  0.333
  0.816  0.165  0.007  0.012  0.000
  0.002  0.011  0.414  0.240  0.333
    occupations:
  0.989 -0.001 -0.001  0.000 -0.001
 -0.001  1.000  0.000 -0.001 -0.000
 -0.001  0.000  1.000  0.001 -0.000
  0.000 -0.001  0.001  0.989 -0.000
 -0.001 -0.000 -0.000 -0.000  1.000
atomic mag. moment =  -3.17772
N of occupied +U levels =   13.550793
 --- exit write_ns ---

     negative rho (up, down):  2.641E-04 2.641E-04
 --- in v_hubbard ---
Hubbard energy    0.0000
 -------

     total cpu time spent up to now is       34.9 secs

     total energy              =    -735.41597701 Ry
     estimated scf accuracy    <       0.00000869 Ry

     total magnetization       =     0.00 Bohr mag/cell
     absolute magnetization    =     7.05 Bohr mag/cell

     iteration # 20     ecut=    30.00 Ry     beta= 0.30
     Davidson diagonalization with overlap
     ethr =  1.98E-08,  avg # of iterations =  2.3
 --- enter write_ns ---
 LDA+U parameters:
U( 1)     =  0.00000001
U( 2)     =  0.00000001
atom    1   Tr[ns(na)] (up, down, total) =   4.97666  1.79932  6.77598
   spin  1
    eigenvalues: 
  0.989  0.989  1.000  1.000  1.000
    eigenvectors:
  0.268  0.713  0.012  0.007  0.000
  0.003  0.010  0.009  0.645  0.333
  0.013  0.000  0.552  0.101  0.333
  0.713  0.268  0.007  0.012  0.000
  0.003  0.009  0.419  0.235  0.333
    occupations:
  0.989 -0.001 -0.001  0.000 -0.001
 -0.001  1.000  0.000 -0.001 -0.000
 -0.001  0.000  1.000  0.001 -0.000
  0.000 -0.001  0.001  0.989 -0.000
 -0.001 -0.000 -0.000 -0.000  1.000
   spin  2
    eigenvalues: 
  0.228  0.270  0.270  0.516  0.516
    eigenvectors:
  0.000  0.770  0.133  0.056  0.040
  0.333  0.041  0.024  0.019  0.583
  0.333  0.001  0.063  0.534  0.069
  0.000  0.133  0.770  0.040  0.056
  0.333  0.055  0.010  0.350  0.252
    occupations:
  0.293 -0.030 -0.030  0.000 -0.059
 -0.030  0.404 -0.088 -0.052  0.088
 -0.030 -0.088  0.404  0.052  0.088
  0.000 -0.052  0.052  0.293 -0.000
 -0.059  0.088  0.088 -0.000  0.404
atomic mag. moment =   3.17733
atom    2   Tr[ns(na)] (up, down, total) =   1.79926  4.97664  6.77589
   spin  1
    eigenvalues: 
  0.228  0.270  0.270  0.516  0.516
    eigenvectors:
  0.000  0.393  0.510  0.043  0.054
  0.333  0.062  0.002  0.058  0.544
  0.333  0.007  0.058  0.576  0.026
  0.000  0.510  0.393  0.054  0.043
  0.333  0.028  0.036  0.269  0.333
    occupations:
  0.293 -0.030 -0.030  0.000 -0.060
 -0.030  0.404 -0.088 -0.052  0.088
 -0.030 -0.088  0.404  0.052  0.088
  0.000 -0.052  0.052  0.293 -0.000
 -0.060  0.088  0.088 -0.000  0.404
   spin  2
    eigenvalues: 
  0.989  0.989  1.000  1.000  1.000
    eigenvectors:
  0.035  0.946  0.012  0.007  0.000
  0.011  0.001  0.013  0.641  0.333
  0.007  0.005  0.564  0.090  0.333
  0.946  0.035  0.007  0.012  0.000
  0.000  0.012  0.404  0.250  0.333
    occupations:
  0.989 -0.001 -0.001  0.000 -0.001
 -0.001  1.000  0.000 -0.001 -0.000
 -0.001  0.000  1.000  0.001 -0.000
  0.000 -0.001  0.001  0.989 -0.000
 -0.001 -0.000 -0.000 -0.000  1.000
atomic mag. moment =  -3.17738
N of occupied +U levels =   13.551871
 --- exit write_ns ---

     negative rho (up, down):  2.639E-04 2.639E-04
 --- in v_hubbard ---
Hubbard energy    0.0000
 -------

     total cpu time spent up to now is       36.7 secs

     total energy              =    -735.41597654 Ry
     estimated scf accuracy    <       0.00000708 Ry

     total magnetization       =     0.00 Bohr mag/cell
     absolute magnetization    =     7.05 Bohr mag/cell

     iteration # 21     ecut=    30.00 Ry     beta= 0.30
     Davidson diagonalization with overlap
     ethr =  1.61E-08,  avg # of iterations =  2.4
 --- enter write_ns ---
 LDA+U parameters:
U( 1)     =  0.00000001
U( 2)     =  0.00000001
atom    1   Tr[ns(na)] (up, down, total) =   4.97663  1.79918  6.77580
   spin  1
    eigenvalues: 
  0.989  0.989  1.000  1.000  1.000
    eigenvectors:
  0.114  0.867  0.013  0.006  0.000
  0.012  0.000  0.003  0.651  0.333
  0.005  0.007  0.528  0.126  0.333
  0.867  0.114  0.006  0.013  0.000
  0.001  0.011  0.450  0.204  0.333
    occupations:
  0.989 -0.001 -0.001  0.000 -0.001
 -0.001  1.000  0.000 -0.001 -0.000
 -0.001  0.000  1.000  0.001 -0.000
  0.000 -0.001  0.001  0.989 -0.000
 -0.001 -0.000 -0.000 -0.000  1.000
   spin  2
    eigenvalues: 
  0.226  0.269  0.269  0.517  0.517
    eigenvectors:
  0.000  0.585  0.318  0.049  0.049
  0.333  0.055  0.010  0.040  0.561
  0.333  0.001  0.064  0.561  0.040
  0.000  0.318  0.585  0.049  0.049
  0.333  0.042  0.023  0.301  0.301
    occupations:
  0.294 -0.030 -0.030  0.000 -0.060
 -0.030  0.404 -0.089 -0.052  0.089
 -0.030 -0.089  0.404  0.052  0.089
  0.000 -0.052  0.052  0.294 -0.000
 -0.060  0.089  0.089 -0.000  0.404
atomic mag. moment =   3.17745
atom    2   Tr[ns(na)] (up, down, total) =   1.79911  4.97661  6.77573
   spin  1
    eigenvalues: 
  0.226  0.269  0.269  0.517  0.517
    eigenvectors:
  0.000  0.360  0.542  0.041  0.057
  0.333  0.063  0.002  0.068  0.534
  0.333  0.008  0.057  0.582  0.020
  0.000  0.542  0.360  0.057  0.041
  0.333  0.026  0.039  0.253  0.349
    occupations:
  0.294 -0.030 -0.030  0.000 -0.060
 -0.030  0.404 -0.089 -0.052  0.089
 -0.030 -0.089  0.404  0.052  0.089
  0.000 -0.052  0.052  0.294 -0.000
 -0.060  0.089  0.089 -0.000  0.404
   spin  2
    eigenvalues: 
  0.988  0.988  1.000  1.000  1.000
    eigenvectors:
  0.478  0.503  0.014  0.005  0.000
  0.012  0.001  0.000  0.654  0.333
  0.001  0.012  0.502  0.152  0.333
  0.503  0.478  0.005  0.014  0.000
  0.006  0.007  0.478  0.176  0.333
    occupations:
  0.989 -0.001 -0.001  0.000 -0.001
 -0.001  1.000  0.000 -0.001 -0.000
 -0.001  0.000  1.000  0.001 -0.000
  0.000 -0.001  0.001  0.989 -0.000
 -0.001 -0.000 -0.000 -0.000  1.000
atomic mag. moment =  -3.17750
N of occupied +U levels =   13.551527
 --- exit write_ns ---

     negative rho (up, down):  2.639E-04 2.639E-04
 --- in v_hubbard ---
Hubbard energy    0.0000
 -------

     total cpu time spent up to now is       38.4 secs

     total energy              =    -735.41599863 Ry
     estimated scf accuracy    <       0.00000094 Ry

     total magnetization       =     0.00 Bohr mag/cell
     absolute magnetization    =     7.04 Bohr mag/cell

     iteration # 22     ecut=    30.00 Ry     beta= 0.30
     Davidson diagonalization with overlap
     ethr =  2.14E-09,  avg # of iterations =  2.3
 --- enter write_ns ---
 LDA+U parameters:
U( 1)     =  0.00000001
U( 2)     =  0.00000001
atom    1   Tr[ns(na)] (up, down, total) =   4.97662  1.79917  6.77580
   spin  1
    eigenvalues: 
  0.989  0.989  1.000  1.000  1.000
    eigenvectors:
  0.150  0.831  0.012  0.008  0.000
  0.013  0.000  0.017  0.637  0.333
  0.005  0.008  0.571  0.082  0.333
  0.831  0.150  0.008  0.012  0.000
  0.002  0.011  0.393  0.261  0.333
    occupations:
  0.989 -0.001 -0.001  0.000 -0.001
 -0.001  1.000  0.000 -0.001 -0.000
 -0.001  0.000  1.000  0.001 -0.000
  0.000 -0.001  0.001  0.989 -0.000
 -0.001 -0.000 -0.000 -0.000  1.000
   spin  2
    eigenvalues: 
  0.225  0.269  0.269  0.518  0.518
    eigenvectors:
  0.000  0.701  0.201  0.048  0.050
  0.333  0.047  0.018  0.044  0.557
  0.333  0.000  0.065  0.565  0.036
  0.000  0.201  0.701  0.050  0.048
  0.333  0.051  0.014  0.293  0.309
    occupations:
  0.294 -0.030 -0.030  0.000 -0.060
 -0.030  0.404 -0.089 -0.052  0.089
 -0.030 -0.089  0.404  0.052  0.089
  0.000 -0.052  0.052  0.294 -0.000
 -0.060  0.089  0.089 -0.000  0.404
atomic mag. moment =   3.17745
atom    2   Tr[ns(na)] (up, down, total) =   1.79908  4.97661  6.77569
   spin  1
    eigenvalues: 
  0.225  0.269  0.269  0.518  0.518
    eigenvectors:
  0.000  0.449  0.453  0.047  0.051
  0.333  0.061  0.004  0.046  0.555
  0.333  0.004  0.061  0.567  0.035
  0.000  0.453  0.449  0.051  0.047
  0.333  0.032  0.033  0.289  0.313
    occupations:
  0.294 -0.030 -0.030  0.000 -0.060
 -0.030  0.404 -0.090 -0.052  0.090
 -0.030 -0.090  0.404  0.052  0.090
  0.000 -0.052  0.052  0.294 -0.000
 -0.060  0.090  0.090 -0.000  0.404
   spin  2
    eigenvalues: 
  0.988  0.988  1.000  1.000  1.000
    eigenvectors:
  0.010  0.971  0.015  0.005  0.000
  0.011  0.002  0.000  0.654  0.333
  0.008  0.004  0.483  0.171  0.333
  0.971  0.010  0.005  0.015  0.000
  0.000  0.013  0.498  0.156  0.333
    occupations:
  0.989 -0.001 -0.001  0.000 -0.001
 -0.001  1.000  0.000 -0.001 -0.000
 -0.001  0.000  1.000  0.001 -0.000
  0.000 -0.001  0.001  0.989 -0.000
 -0.001 -0.000 -0.000 -0.000  1.000
atomic mag. moment =  -3.17753
N of occupied +U levels =   13.551487
 --- exit write_ns ---

     negative rho (up, down):  2.637E-04 2.637E-04
 --- in v_hubbard ---
Hubbard energy    0.0000
 -------

     total cpu time spent up to now is       40.1 secs

     total energy              =    -735.41598556 Ry
     estimated scf accuracy    <       0.00000286 Ry

     total magnetization       =    -0.00 Bohr mag/cell
     absolute magnetization    =     7.04 Bohr mag/cell

     iteration # 23     ecut=    30.00 Ry     beta= 0.30
     Davidson diagonalization with overlap
     ethr =  2.14E-09,  avg # of iterations =  3.5
 --- enter write_ns ---
 LDA+U parameters:
U( 1)     =  0.00000001
U( 2)     =  0.00000001
atom    1   Tr[ns(na)] (up, down, total) =   4.97658  1.79892  6.77551
   spin  1
    eigenvalues: 
  0.988  0.988  1.000  1.000  1.000
    eigenvectors:
  0.126  0.854  0.013  0.006  0.000
  0.013  0.000  0.002  0.652  0.333
  0.005  0.008  0.522  0.132  0.333
  0.854  0.126  0.006  0.013  0.000
  0.002  0.011  0.457  0.197  0.333
    occupations:
  0.989 -0.001 -0.001  0.000 -0.001
 -0.001  1.000  0.000 -0.001 -0.000
 -0.001  0.000  1.000  0.001 -0.000
  0.000 -0.001  0.001  0.989 -0.000
 -0.001 -0.000 -0.000 -0.000  1.000
   spin  2
    eigenvalues: 
  0.223  0.269  0.269  0.519  0.519
    eigenvectors:
  0.000  0.399  0.502  0.047  0.052
  0.333  0.063  0.003  0.048  0.553
  0.333  0.006  0.059  0.567  0.034
  0.000  0.502  0.399  0.052  0.047
  0.333  0.029  0.037  0.286  0.315
    occupations:
  0.294 -0.030 -0.030  0.000 -0.061
 -0.030  0.404 -0.090 -0.053  0.090
 -0.030 -0.090  0.404  0.053  0.090
  0.000 -0.053  0.053  0.294 -0.000
 -0.061  0.090  0.090 -0.000  0.404
atomic mag. moment =   3.17766
atom    2   Tr[ns(na)] (up, down, total) =   1.79903  4.97658  6.77562
   spin  1
    eigenvalues: 
  0.223  0.269  0.269  0.519  0.519
    eigenvectors:
  0.000  0.310  0.591  0.056  0.043
  0.333  0.065  0.001  0.023  0.578
  0.333  0.011  0.055  0.540  0.061
  0.000  0.591  0.310  0.043  0.056
  0.333  0.023  0.043  0.339  0.262
    occupations:
  0.294 -0.030 -0.030  0.000 -0.061
 -0.030  0.404 -0.090 -0.053  0.090
 -0.030 -0.090  0.404  0.053  0.090
  0.000 -0.053  0.053  0.294 -0.000
 -0.061  0.090  0.090 -0.000  0.404
   spin  2
    eigenvalues: 
  0.988  0.988  1.000  1.000  1.000
    eigenvectors:
  0.198  0.783  0.015  0.005  0.000
  0.013  0.000  0.000  0.654  0.333
  0.004  0.009  0.486  0.168  0.333
  0.783  0.198  0.005  0.015  0.000
  0.003  0.010  0.495  0.159  0.333
    occupations:
  0.989 -0.001 -0.001  0.000 -0.001
 -0.001  1.000  0.000 -0.001 -0.000
 -0.001  0.000  1.000  0.001 -0.000
  0.000 -0.001  0.001  0.989 -0.000
 -0.001 -0.000 -0.000 -0.000  1.000
atomic mag. moment =  -3.17755
N of occupied +U levels =   13.551123
 --- exit write_ns ---

     negative rho (up, down):  2.638E-04 2.638E-04
 --- in v_hubbard ---
Hubbard energy    0.0000
 -------

     total cpu time spent up to now is       42.0 secs

     total energy              =    -735.41600301 Ry
     estimated scf accuracy    <       0.00000009 Ry

     total magnetization       =     0.00 Bohr mag/cell
     absolute magnetization    =     7.04 Bohr mag/cell

     iteration # 24     ecut=    30.00 Ry     beta= 0.30
     Davidson diagonalization with overlap
     ethr =  2.05E-10,  avg # of iterations =  3.4
 --- enter write_ns ---
 LDA+U parameters:
U( 1)     =  0.00000001
U( 2)     =  0.00000001
atom    1   Tr[ns(na)] (up, down, total) =   4.97658  1.79901  6.77560
   spin  1
    eigenvalues: 
  0.988  0.988  1.000  1.000  1.000
    eigenvectors:
  0.218  0.763  0.014  0.005  0.000
  0.013  0.000  0.000  0.653  0.333
  0.004  0.009  0.505  0.149  0.333
  0.763  0.218  0.005  0.014  0.000
  0.003  0.010  0.475  0.178  0.333
    occupations:
  0.989 -0.001 -0.001  0.000 -0.001
 -0.001  1.000  0.000 -0.001 -0.000
 -0.001  0.000  1.000  0.001 -0.000
[...]
  0.000  0.013  0.411  0.243  0.333
    occupations:
  0.989 -0.001 -0.001  0.000 -0.001
 -0.001  1.000  0.000 -0.001 -0.000
 -0.001  0.000  1.000  0.001 -0.000
  0.000 -0.001  0.001  0.989 -0.000
 -0.001 -0.000 -0.000 -0.000  1.000
   spin  2
    eigenvalues: 
  0.220  0.269  0.269  0.521  0.521
    eigenvectors:
  0.000  0.376  0.524  0.052  0.048
  0.333  0.064  0.002  0.035  0.565
  0.333  0.008  0.059  0.555  0.045
  0.000  0.524  0.376  0.048  0.052
  0.333  0.028  0.039  0.310  0.290
    occupations:
  0.294 -0.031 -0.031  0.000 -0.062
 -0.031  0.404 -0.092 -0.053  0.092
 -0.031 -0.092  0.404  0.053  0.092
  0.000 -0.053  0.053  0.294 -0.000
 -0.062  0.092  0.092 -0.000  0.404
atomic mag. moment =   3.17762
atom    2   Tr[ns(na)] (up, down, total) =   1.79892  4.97655  6.77547
   spin  1
    eigenvalues: 
  0.220  0.269  0.269  0.521  0.521
    eigenvectors:
  0.000  0.297  0.604  0.042  0.057
  0.333  0.066  0.001  0.066  0.534
  0.333  0.012  0.055  0.580  0.020
  0.000  0.604  0.297  0.057  0.042
  0.333  0.022  0.045  0.255  0.345
    occupations:
  0.294 -0.031 -0.031  0.000 -0.062
 -0.031  0.404 -0.092 -0.053  0.092
 -0.031 -0.092  0.404  0.053  0.092
  0.000 -0.053  0.053  0.294 -0.000
 -0.062  0.092  0.092 -0.000  0.404
   spin  2
    eigenvalues: 
  0.988  0.988  1.000  1.000  1.000
    eigenvectors:
  0.096  0.885  0.010  0.009  0.000
  0.012  0.001  0.036  0.618  0.333
  0.006  0.007  0.601  0.052  0.333
  0.885  0.096  0.009  0.010  0.000
  0.001  0.012  0.344  0.310  0.333
    occupations:
  0.989 -0.001 -0.001  0.000 -0.001
 -0.001  1.000  0.000 -0.001 -0.000
 -0.001  0.000  1.000  0.001 -0.000
  0.000 -0.001  0.001  0.989 -0.000
 -0.001 -0.000 -0.000 -0.000  1.000
atomic mag. moment =  -3.17763
N of occupied +U levels =   13.550950
 --- exit write_ns ---

     negative rho (up, down):  2.638E-04 2.638E-04
 --- in v_hubbard ---
Hubbard energy    0.0000
 -------

     total cpu time spent up to now is       78.1 secs

     total energy              =    -735.41601910 Ry
     estimated scf accuracy    <       0.00000002 Ry

     total magnetization       =    -0.00 Bohr mag/cell
     absolute magnetization    =     7.04 Bohr mag/cell

     iteration # 45     ecut=    30.00 Ry     beta= 0.30
     Davidson diagonalization with overlap
     ethr =  4.92E-11,  avg # of iterations =  2.3
 --- enter write_ns ---
 LDA+U parameters:
U( 1)     =  0.00000001
U( 2)     =  0.00000001
atom    1   Tr[ns(na)] (up, down, total) =   4.97655  1.79892  6.77547
   spin  1
    eigenvalues: 
  0.988  0.988  1.000  1.000  1.000
    eigenvectors:
  0.146  0.835  0.014  0.005  0.000
  0.013  0.000  0.001  0.653  0.333
  0.005  0.008  0.506  0.148  0.333
  0.835  0.146  0.005  0.014  0.000
  0.002  0.011  0.474  0.180  0.333
    occupations:
  0.989 -0.001 -0.001  0.000 -0.001
 -0.001  1.000  0.000 -0.001 -0.000
 -0.001  0.000  1.000  0.001 -0.000
  0.000 -0.001  0.001  0.989 -0.000
 -0.001 -0.000 -0.000 -0.000  1.000
   spin  2
    eigenvalues: 
  0.220  0.269  0.269  0.521  0.521
    eigenvectors:
  0.000  0.520  0.380  0.043  0.057
  0.333  0.059  0.007  0.064  0.536
  0.333  0.002  0.064  0.578  0.022
  0.000  0.380  0.520  0.057  0.043
  0.333  0.038  0.028  0.258  0.342
    occupations:
  0.294 -0.031 -0.031  0.000 -0.062
 -0.031  0.404 -0.092 -0.053  0.092
 -0.031 -0.092  0.404  0.053  0.092
  0.000 -0.053  0.053  0.294 -0.000
 -0.062  0.092  0.092 -0.000  0.404
atomic mag. moment =   3.17763
atom    2   Tr[ns(na)] (up, down, total) =   1.79892  4.97655  6.77546
   spin  1
    eigenvalues: 
  0.220  0.269  0.269  0.521  0.521
    eigenvectors:
  0.000  0.313  0.587  0.055  0.044
  0.333  0.066  0.001  0.025  0.575
  0.333  0.011  0.056  0.542  0.059
  0.000  0.587  0.313  0.044  0.055
  0.333  0.023  0.043  0.333  0.267
    occupations:
  0.294 -0.031 -0.031  0.000 -0.062
 -0.031  0.404 -0.092 -0.053  0.092
 -0.031 -0.092  0.404  0.053  0.092
  0.000 -0.053  0.053  0.294 -0.000
 -0.062  0.092  0.092 -0.000  0.404
   spin  2
    eigenvalues: 
  0.988  0.988  1.000  1.000  1.000
    eigenvectors:
  0.214  0.767  0.014  0.005  0.000
  0.013  0.000  0.001  0.653  0.333
  0.004  0.009  0.506  0.148  0.333
  0.767  0.214  0.005  0.014  0.000
  0.003  0.010  0.474  0.180  0.333
    occupations:
  0.989 -0.001 -0.001  0.000 -0.001
 -0.001  1.000  0.000 -0.001 -0.000
 -0.001  0.000  1.000  0.001 -0.000
  0.000 -0.001  0.001  0.989 -0.000
 -0.001 -0.000 -0.000 -0.000  1.000
atomic mag. moment =  -3.17763
N of occupied +U levels =   13.550930
 --- exit write_ns ---

     negative rho (up, down):  2.638E-04 2.638E-04
 --- in v_hubbard ---
Hubbard energy    0.0000
 -------

     total cpu time spent up to now is       79.8 secs

     total energy              =    -735.41601909 Ry
     estimated scf accuracy    <          1.9E-09 Ry

     total magnetization       =     0.00 Bohr mag/cell
     absolute magnetization    =     7.04 Bohr mag/cell

     iteration # 46     ecut=    30.00 Ry     beta= 0.30
     Davidson diagonalization with overlap
     ethr =  4.38E-12,  avg # of iterations =  3.7
 --- enter write_ns ---
 LDA+U parameters:
U( 1)     =  0.00000001
U( 2)     =  0.00000001
atom    1   Tr[ns(na)] (up, down, total) =   4.97655  1.79891  6.77546
   spin  1
    eigenvalues: 
  0.988  0.988  1.000  1.000  1.000
    eigenvectors:
  0.001  0.980  0.011  0.008  0.000
  0.010  0.003  0.024  0.630  0.333
  0.009  0.003  0.585  0.069  0.333
  0.980  0.001  0.008  0.011  0.000
  0.000  0.013  0.371  0.283  0.333
    occupations:
  0.989 -0.001 -0.001  0.000 -0.001
 -0.001  1.000  0.000 -0.001 -0.000
 -0.001  0.000  1.000  0.001 -0.000
  0.000 -0.001  0.001  0.989 -0.000
 -0.001 -0.000 -0.000 -0.000  1.000
   spin  2
    eigenvalues: 
  0.220  0.269  0.269  0.521  0.521
    eigenvectors:
  0.000  0.260  0.640  0.051  0.049
  0.333  0.066  0.000  0.037  0.564
  0.333  0.014  0.052  0.556  0.044
  0.000  0.640  0.260  0.049  0.051
  0.333  0.019  0.047  0.307  0.293
    occupations:
  0.294 -0.031 -0.031  0.000 -0.062
 -0.031  0.404 -0.092 -0.053  0.092
 -0.031 -0.092  0.404  0.053  0.092
  0.000 -0.053  0.053  0.294 -0.000
 -0.062  0.092  0.092 -0.000  0.404
atomic mag. moment =   3.17764
atom    2   Tr[ns(na)] (up, down, total) =   1.79891  4.97655  6.77546
   spin  1
    eigenvalues: 
  0.220  0.269  0.269  0.521  0.521
    eigenvectors:
  0.000  0.433  0.467  0.059  0.041
  0.333  0.063  0.004  0.017  0.583
  0.333  0.005  0.061  0.528  0.072
  0.000  0.467  0.433  0.041  0.059
  0.333  0.032  0.035  0.356  0.245
    occupations:
  0.294 -0.031 -0.031  0.000 -0.062
 -0.031  0.404 -0.092 -0.053  0.092
 -0.031 -0.092  0.404  0.053  0.092
  0.000 -0.053  0.053  0.294 -0.000
 -0.062  0.092  0.092 -0.000  0.404
   spin  2
    eigenvalues: 
  0.988  0.988  1.000  1.000  1.000
    eigenvectors:
  0.132  0.849  0.012  0.007  0.000
  0.013  0.000  0.010  0.644  0.333
  0.005  0.008  0.556  0.098  0.333
  0.849  0.132  0.007  0.012  0.000
  0.002  0.011  0.415  0.239  0.333
    occupations:
  0.989 -0.001 -0.001  0.000 -0.001
 -0.001  1.000  0.000 -0.001 -0.000
 -0.001  0.000  1.000  0.001 -0.000
  0.000 -0.001  0.001  0.989 -0.000
 -0.001 -0.000 -0.000 -0.000  1.000
atomic mag. moment =  -3.17763
N of occupied +U levels =   13.550917
 --- exit write_ns ---

     negative rho (up, down):  2.638E-04 2.638E-04
 --- in v_hubbard ---
Hubbard energy    0.0000
 -------
 
     Magnetic moment per site:
     atom:    1    charge:   13.6362    magn:    3.2567    constr:    0.0000
     atom:    2    charge:   13.6362    magn:   -3.2567    constr:    0.0000
     atom:    3    charge:    5.8127    magn:    0.0000    constr:    0.0000
     atom:    4    charge:    5.8127    magn:    0.0000    constr:    0.0000

     total cpu time spent up to now is       81.6 secs

     End of self-consistent calculation

 ------ SPIN UP ------------


          k = 0.0000 0.0000 0.0000 (   731 PWs)   bands (ev):

   -75.8527 -71.9492 -41.6113 -41.4534 -41.4534 -37.7561 -37.7220 -37.7220
    -6.3925  -5.2077   5.7071   7.9088   7.9088  10.4098  10.5747  10.5747
    10.6580  10.6745  10.6745  11.5591  11.5591  13.4351  13.4351  14.0690
    14.6610  15.6342

     occupation numbers 
     1.0000   1.0000   1.0000   1.0000   1.0000   1.0000   1.0000   1.0000
     1.0000   1.0000   1.0000   1.0000   1.0000   1.0000   1.0000   1.0000
     1.0000   1.0000   1.0000   1.0000   1.0000   1.0235   1.0235   0.0079
     0.0000   0.0000

          k = 0.5000-0.1667-0.1667 (   758 PWs)   bands (ev):

   -75.8613 -71.9564 -41.6310 -41.5361 -41.4828 -37.8107 -37.7781 -37.7533
    -5.6330  -5.1838   6.9664   7.1084   7.7082   8.1964   8.7278   9.2028
    10.3075  11.0334  11.2693  12.0069  12.3186  13.1599  13.9924  14.3889
    15.1586  15.4250

     occupation numbers 
     1.0000   1.0000   1.0000   1.0000   1.0000   1.0000   1.0000   1.0000
     1.0000   1.0000   1.0000   1.0000   1.0000   1.0000   1.0000   1.0000
     1.0000   1.0000   1.0000   1.0000   1.0000   1.0412   0.0239   0.0000
     0.0000   0.0000

          k = 0.3333 0.3333-0.3333 (   753 PWs)   bands (ev):

   -75.8578 -71.9533 -41.6071 -41.5406 -41.4716 -37.8144 -37.7557 -37.7432
    -5.5395  -5.2821   6.6232   7.1542   8.0614   8.2481   8.7224   9.1273
    10.3137  11.0246  11.0538  12.2810  12.3547  13.1903  14.0246  14.3533
    15.4588  15.5405

     occupation numbers 
     1.0000   1.0000   1.0000   1.0000   1.0000   1.0000   1.0000   1.0000
     1.0000   1.0000   1.0000   1.0000   1.0000   1.0000   1.0000   1.0000
     1.0000   1.0000   1.0000   1.0000   1.0000   1.0514   0.0153   0.0000
     0.0000   0.0000

          k =-0.6667 0.6667 0.0000 (   767 PWs)   bands (ev):

   -75.8639 -71.9585 -41.6161 -41.5526 -41.5446 -37.8239 -37.8183 -37.7632
    -5.1846  -5.1842   6.9724   7.0469   7.6724   7.8717   8.1924   8.4228
    10.5762  11.1365  11.1782  12.0271  12.2943  13.8554  13.9192  14.2633
    15.3627  15.5016

     occupation numbers 
     1.0000   1.0000   1.0000   1.0000   1.0000   1.0000   1.0000   1.0000
     1.0000   1.0000   1.0000   1.0000   1.0000   1.0000   1.0000   1.0000
     1.0000   1.0000   1.0000   1.0000   1.0000   0.1181   0.0596   0.0002
     0.0000   0.0000

          k = 0.1667 0.1667 0.1667 (   739 PWs)   bands (ev):

   -75.8562 -71.9523 -41.6199 -41.4564 -41.4564 -37.7712 -37.7269 -37.7269
    -6.1314  -5.5386   6.5793   8.1924   8.1924   8.7570   9.7109   9.7109
    10.6237  10.6237  10.6992  12.4319  12.4319  13.3739  13.3739  13.8895
    15.4252  15.4252

     occupation numbers 
     1.0000   1.0000   1.0000   1.0000   1.0000   1.0000   1.0000   1.0000
     1.0000   1.0000   1.0000   1.0000   1.0000   1.0000   1.0000   1.0000
     1.0000   1.0000   1.0000   1.0000   1.0000   1.0718   1.0718   0.0830
     0.0000   0.0000

          k =-0.8333 0.5000 0.5000 (   762 PWs)   bands (ev):

   -75.8615 -71.9566 -41.6273 -41.5499 -41.4840 -37.8223 -37.7749 -37.7543
    -5.5060  -5.3112   6.3974   6.9862   8.0694   8.1835   9.5262   9.5303
    10.0109  11.0808  11.1357  11.8587  11.9008  13.3369  13.9941  14.3835
    14.9873  15.6751

     occupation numbers 
     1.0000   1.0000   1.0000   1.0000   1.0000   1.0000   1.0000   1.0000
     1.0000   1.0000   1.0000   1.0000   1.0000   1.0000   1.0000   1.0000
     1.0000   1.0000   1.0000   1.0000   1.0000   1.0823   0.0233   0.0000
     0.0000   0.0000

 ------ SPIN DOWN ----------


          k = 0.0000 0.0000 0.0000 (   731 PWs)   bands (ev):

   -75.8527 -71.9492 -41.6113 -41.4534 -41.4534 -37.7561 -37.7220 -37.7220
    -6.3925  -5.2077   5.7071   7.9088   7.9088  10.4098  10.5747  10.5747
    10.6580  10.6745  10.6745  11.5591  11.5591  13.4351  13.4351  14.0689
    14.6610  15.6342

     occupation numbers 
     1.0000   1.0000   1.0000   1.0000   1.0000   1.0000   1.0000   1.0000
     1.0000   1.0000   1.0000   1.0000   1.0000   1.0000   1.0000   1.0000
     1.0000   1.0000   1.0000   1.0000   1.0000   1.0235   1.0235   0.0079
     0.0000   0.0000

          k = 0.5000-0.1667-0.1667 (   758 PWs)   bands (ev):

   -75.8613 -71.9564 -41.6310 -41.5361 -41.4828 -37.8107 -37.7781 -37.7533
    -5.6330  -5.1838   6.9664   7.1084   7.7082   8.1964   8.7278   9.2028
    10.3074  11.0334  11.2693  12.0069  12.3186  13.1599  13.9924  14.3889
    15.1586  15.4250

     occupation numbers 
     1.0000   1.0000   1.0000   1.0000   1.0000   1.0000   1.0000   1.0000
     1.0000   1.0000   1.0000   1.0000   1.0000   1.0000   1.0000   1.0000
     1.0000   1.0000   1.0000   1.0000   1.0000   1.0412   0.0239   0.0000
     0.0000   0.0000

          k = 0.3333 0.3333-0.3333 (   753 PWs)   bands (ev):

   -75.8578 -71.9533 -41.6071 -41.5406 -41.4717 -37.8144 -37.7557 -37.7432
    -5.5395  -5.2821   6.6232   7.1542   8.0614   8.2481   8.7224   9.1273
    10.3137  11.0246  11.0538  12.2810  12.3547  13.1903  14.0246  14.3533
    15.4588  15.5405

     occupation numbers 
     1.0000   1.0000   1.0000   1.0000   1.0000   1.0000   1.0000   1.0000
     1.0000   1.0000   1.0000   1.0000   1.0000   1.0000   1.0000   1.0000
     1.0000   1.0000   1.0000   1.0000   1.0000   1.0514   0.0153   0.0000
     0.0000   0.0000

          k =-0.6667 0.6667 0.0000 (   767 PWs)   bands (ev):

   -75.8639 -71.9585 -41.6161 -41.5526 -41.5446 -37.8239 -37.8183 -37.7632
    -5.1846  -5.1842   6.9724   7.0469   7.6724   7.8717   8.1924   8.4228
    10.5762  11.1365  11.1782  12.0271  12.2943  13.8554  13.9192  14.2633
    15.3627  15.5016

     occupation numbers 
     1.0000   1.0000   1.0000   1.0000   1.0000   1.0000   1.0000   1.0000
     1.0000   1.0000   1.0000   1.0000   1.0000   1.0000   1.0000   1.0000
     1.0000   1.0000   1.0000   1.0000   1.0000   0.1181   0.0596   0.0002
     0.0000   0.0000

          k = 0.1667 0.1667 0.1667 (   739 PWs)   bands (ev):

   -75.8562 -71.9523 -41.6199 -41.4564 -41.4564 -37.7712 -37.7269 -37.7269
    -6.1314  -5.5386   6.5793   8.1924   8.1924   8.7570   9.7109   9.7109
    10.6237  10.6237  10.6992  12.4319  12.4319  13.3739  13.3739  13.8895
    15.4252  15.4252

     occupation numbers 
     1.0000   1.0000   1.0000   1.0000   1.0000   1.0000   1.0000   1.0000
     1.0000   1.0000   1.0000   1.0000   1.0000   1.0000   1.0000   1.0000
     1.0000   1.0000   1.0000   1.0000   1.0000   1.0718   1.0718   0.0830
     0.0000   0.0000

          k =-0.8333 0.5000 0.5000 (   762 PWs)   bands (ev):

   -75.8615 -71.9566 -41.6273 -41.5499 -41.4840 -37.8223 -37.7749 -37.7543
    -5.5060  -5.3112   6.3974   6.9862   8.0694   8.1835   9.5262   9.5303
    10.0109  11.0808  11.1357  11.8587  11.9008  13.3369  13.9942  14.3835
    14.9873  15.6751

     occupation numbers 
     1.0000   1.0000   1.0000   1.0000   1.0000   1.0000   1.0000   1.0000
     1.0000   1.0000   1.0000   1.0000   1.0000   1.0000   1.0000   1.0000
     1.0000   1.0000   1.0000   1.0000   1.0000   1.0823   0.0233   0.0000
     0.0000   0.0000

     the Fermi energy is    13.7043 ev

!    total energy              =    -735.41601912 Ry

     total all-electron energy =     -5385.792041 Ry
     estimated scf accuracy    <          4.7E-10 Ry
     smearing contrib. (-TS)   =       0.00216316 Ry
     internal energy E=F+TS    =    -735.41818228 Ry

     The total energy is F=E-TS. E is the sum of the following terms:
     one-electron contribution =    -266.70634522 Ry
     hartree contribution      =     159.15390097 Ry
     xc contribution           =     -83.61064559 Ry
     ewald contribution        =    -378.02403899 Ry
     Hubbard energy            =       0.00000000 Ry
     one-center paw contrib.   =    -166.23105345 Ry
      -> PAW hartree energy AE =     472.00310891 Ry
      -> PAW hartree energy PS =    -470.22509806 Ry
      -> PAW xc energy AE      =    -250.82028923 Ry
      -> PAW xc energy PS      =      82.81122493 Ry
      -> total E_H with PAW    =     160.93191182 Ry
      -> total E_XC with PAW   =    -251.61970989 Ry

     total magnetization       =     0.00 Bohr mag/cell
     absolute magnetization    =     7.04 Bohr mag/cell

     convergence has been achieved in  46 iterations

     Writing output data file ./tmp/FeO.save/
 
     init_run     :      1.91s CPU      2.00s WALL (       1 calls)
     electrons    :     76.15s CPU     79.45s WALL (       1 calls)

     Called by init_run:
     wfcinit      :      0.37s CPU      0.37s WALL (       1 calls)
     wfcinit:atom :      0.00s CPU      0.00s WALL (      12 calls)
     wfcinit:wfcr :      0.34s CPU      0.34s WALL (      12 calls)
     potinit      :      0.78s CPU      0.81s WALL (       1 calls)
     hinit0       :      0.69s CPU      0.72s WALL (       1 calls)

     Called by electrons:
     c_bands      :     28.61s CPU     28.73s WALL (      46 calls)
     sum_band     :     11.00s CPU     12.34s WALL (      46 calls)
     v_of_rho     :      4.45s CPU      4.69s WALL (      47 calls)
     v_h          :      0.04s CPU      0.07s WALL (      47 calls)
     v_xc         :      4.41s CPU      4.62s WALL (      47 calls)
     newd         :      2.23s CPU      3.71s WALL (      47 calls)
     PAW_pot      :     30.12s CPU     30.27s WALL (      47 calls)
     mix_rho      :      0.32s CPU      0.32s WALL (      46 calls)

     Called by c_bands:
     init_us_2    :      0.39s CPU      0.39s WALL (    1128 calls)
     cegterg      :     27.37s CPU     27.48s WALL (     552 calls)

     Called by sum_band:
     sum_band:wei :      0.01s CPU      0.01s WALL (      46 calls)
     sum_band:loo :      6.10s CPU      6.13s WALL (      46 calls)
     sum_band:buf :      0.01s CPU      0.01s WALL (     552 calls)
     sum_band:ini :      0.19s CPU      0.19s WALL (     552 calls)
     sum_band:cal :      0.12s CPU      0.12s WALL (     552 calls)
     sum_band:bec :      0.01s CPU      0.01s WALL (     552 calls)
     addusdens    :      4.59s CPU      5.89s WALL (      46 calls)
     addusd:skk   :      0.01s CPU      0.01s WALL (     138 calls)
     addusd:dgemm :      0.99s CPU      2.13s WALL (     276 calls)
     addusd:qvan2 :      3.40s CPU      3.42s WALL (     276 calls)

     Called by *egterg:
     cdiaghg      :      0.94s CPU      0.95s WALL (    1772 calls)
     cegterg:over :      0.32s CPU      0.33s WALL (    1220 calls)
     cegterg:upda :      0.19s CPU      0.19s WALL (    1220 calls)
     cegterg:last :      0.35s CPU      0.36s WALL (     955 calls)
     h_psi        :     25.26s CPU     25.35s WALL (    1784 calls)
     s_psi        :      0.29s CPU      0.29s WALL (    1796 calls)
     g_psi        :      0.09s CPU      0.09s WALL (    1220 calls)

     Called by h_psi:
     h_psi:calbec :      0.28s CPU      0.28s WALL (    1784 calls)
     vloc_psi     :     24.45s CPU     24.54s WALL (    1784 calls)
     add_vuspsi   :      0.29s CPU      0.29s WALL (    1784 calls)
     vhpsi        :      0.20s CPU      0.20s WALL (    1784 calls)

     General routines
     calbec       :      0.50s CPU      0.51s WALL (    4684 calls)
     fft          :      1.09s CPU      1.14s WALL (    1169 calls)
     ffts         :      0.06s CPU      0.06s WALL (     186 calls)
     fftw         :     26.53s CPU     26.65s WALL (   79422 calls)
     interpolate  :      0.14s CPU      0.15s WALL (      94 calls)
     davcio       :      0.00s CPU      0.00s WALL (      12 calls)
 
     Parallel routines

     Hubbard U routines
     new_ns       :      0.06s CPU      0.07s WALL (      46 calls)
     new_ns       :      0.06s CPU      0.07s WALL (      46 calls)
     vhpsi        :      0.20s CPU      0.20s WALL (    1784 calls)

     PAW routines
     PAW_pot      :     30.12s CPU     30.27s WALL (      47 calls)
     PAW_symme    :      0.04s CPU      0.04s WALL (      93 calls)
 
     PWSCF        :   1m18.27s CPU   1m21.68s WALL

 
   This run was terminated on:  13: 0:39  16Apr2021            

=------------------------------------------------------------------------------=
   JOB DONE.
=------------------------------------------------------------------------------=
