
     Program PWSCF v.6.7MaX starts on 16Apr2021 at 13: 1: 9 

     This program is part of the open-source Quantum ESPRESSO suite
     for quantum simulation of materials; please cite
         "P. Giannozzi et al., J. Phys.:Condens. Matter 21 395502 (2009);
         "P. Giannozzi et al., J. Phys.:Condens. Matter 29 465901 (2017);
          URL http://www.quantum-espresso.org", 
     in publications or presentations arising from this work. More details at
     http://www.quantum-espresso.org/quote

     Parallel version (MPI), running on     1 processors

     MPI processes distributed on     1 nodes
     Waiting for input...
     Reading input from standard input

     Current dimensions of program PWSCF are:
     Max number of different atomic species (ntypx) = 10
     Max number of k-points (npk) =  40000
     Max angular momentum in pseudopotentials (lmaxx) =  3
     Message from routine volume:
     axis vectors are left-handed

     Atomic positions and unit cell read from directory:
     ./tmp/FeO.save/
     Atomic positions from file used, from input discarded
 
     Message from routine volume:
     axis vectors are left-handed
     file Fe.pbesol-spn-kjpaw_psl.0.2.1.UPF: wavefunction(s)  3D renormalized
     file Fe.pbesol-spn-kjpaw_psl.0.2.1.UPF: wavefunction(s)  3D renormalized
     file O.pbesol-n-kjpaw_psl.0.1.UPF: wavefunction(s)  2P renormalized

     Subspace diagonalization in iterative solution of the eigenvalue problem:
     a serial algorithm will be used

     Message from routine setup:
     using ibrav=0 with symmetry is DISCOURAGED, use correct ibrav instead
 
     G-vector sticks info
     --------------------
     sticks:   dense  smooth     PW     G-vecs:    dense   smooth      PW
     Sum        1061     539    189                17255     6111    1273
 


     bravais-lattice index     =            0
     lattice parameter (alat)  =       8.1900  a.u.
     unit-cell volume          =     274.6766 (a.u.)^3
     number of atoms/cell      =            4
     number of atomic types    =            3
     number of electrons       =        44.00
     number of Kohn-Sham states=           35
     kinetic-energy cutoff     =      30.0000  Ry
     charge density cutoff     =     240.0000  Ry
     Exchange-correlation= SLA  PW   PSX  PSC
                           (   1   4  10   8   0   0   0)

     celldm(1)=   8.190000  celldm(2)=   0.000000  celldm(3)=   0.000000
     celldm(4)=   0.000000  celldm(5)=   0.000000  celldm(6)=   0.000000

     crystal axes: (cart. coord. in units of alat)
               a(1) = (   0.500000   0.500000   1.000000 )  
               a(2) = (   0.500000   1.000000   0.500000 )  
               a(3) = (   1.000000   0.500000   0.500000 )  

     reciprocal axes: (cart. coord. in units 2 pi/alat)
               b(1) = ( -0.500000 -0.500000  1.500000 )  
               b(2) = ( -0.500000  1.500000 -0.500000 )  
               b(3) = (  1.500000 -0.500000 -0.500000 )  


     PseudoPot. # 1 for Fe read from file:
     ../../pseudo/Fe.pbesol-spn-kjpaw_psl.0.2.1.UPF
     MD5 check sum: 7febcda02fc281f884e3aa15a414695d
     Pseudo is Projector augmented-wave + core cor, Zval = 16.0
     Generated using "atomic" code by A. Dal Corso  v.6.0 svn rev. 13079
     Shape of augmentation charge: PSQ
     Using radial grid of 1191 points,  6 beta functions with: 
                l(1) =   0
                l(2) =   0
                l(3) =   1
                l(4) =   1
                l(5) =   2
                l(6) =   2
     Q(r) pseudized with 0 coefficients 


     PseudoPot. # 2 for Fe read from file:
     ../../pseudo/Fe.pbesol-spn-kjpaw_psl.0.2.1.UPF
     MD5 check sum: 7febcda02fc281f884e3aa15a414695d
     Pseudo is Projector augmented-wave + core cor, Zval = 16.0
     Generated using "atomic" code by A. Dal Corso  v.6.0 svn rev. 13079
     Shape of augmentation charge: PSQ
     Using radial grid of 1191 points,  6 beta functions with: 
                l(1) =   0
                l(2) =   0
                l(3) =   1
                l(4) =   1
                l(5) =   2
                l(6) =   2
     Q(r) pseudized with 0 coefficients 


     PseudoPot. # 3 for O  read from file:
     ../../pseudo/O.pbesol-n-kjpaw_psl.0.1.UPF
     MD5 check sum: 126339daddaa87477ab44acfa0b5aa00
     Pseudo is Projector augmented-wave + core cor, Zval =  6.0
     Generated using "atomic" code by A. Dal Corso  v.6.0 svn rev. 13079
     Shape of augmentation charge: BESSEL
     Using radial grid of 1095 points,  4 beta functions with: 
                l(1) =   0
                l(2) =   0
                l(3) =   1
                l(4) =   1
     Q(r) pseudized with 0 coefficients 


     atomic species   valence    mass     pseudopotential
        Fe1           16.00    55.84500     Fe( 1.00)
        Fe2           16.00    55.84500     Fe( 1.00)
        O              6.00    16.00000     O ( 1.00)

     Starting magnetic structure 
     atomic species   magnetization
        Fe1          0.500
        Fe2         -0.500
        O            0.000


     Simplified LDA+U calculation (l_max = 2) with parameters (eV):
     atomic species    L          U    alpha       J0     beta
        Fe1            2     0.0000   0.0000   0.0000   0.0000
        Fe2            2     0.0000   0.0000   0.0000   0.0000



     12 Sym. Ops., with inversion, found


                                    s                        frac. trans.

      isym =  1     identity                                     

 cryst.   s( 1) = (     1          0          0      )
                  (     0          1          0      )
                  (     0          0          1      )

 cart.    s( 1) = (  1.0000000  0.0000000  0.0000000 )
                  (  0.0000000  1.0000000  0.0000000 )
                  (  0.0000000  0.0000000  1.0000000 )


      isym =  2     180 deg rotation - cart. axis [1,-1,0]       

 cryst.   s( 2) = (    -1          0          0      )
                  (     0          0         -1      )
                  (     0         -1          0      )

 cart.    s( 2) = (  0.0000000 -1.0000000  0.0000000 )
                  ( -1.0000000  0.0000000  0.0000000 )
                  (  0.0000000  0.0000000 -1.0000000 )


      isym =  3     180 deg rotation - cart. axis [-1,0,1]       

 cryst.   s( 3) = (     0          0         -1      )
                  (     0         -1          0      )
                  (    -1          0          0      )

 cart.    s( 3) = (  0.0000000  0.0000000 -1.0000000 )
                  (  0.0000000 -1.0000000  0.0000000 )
                  ( -1.0000000  0.0000000  0.0000000 )


      isym =  4     180 deg rotation - cart. axis [0,1,-1]       

 cryst.   s( 4) = (     0         -1          0      )
                  (    -1          0          0      )
                  (     0          0         -1      )

 cart.    s( 4) = ( -1.0000000  0.0000000  0.0000000 )
                  (  0.0000000  0.0000000 -1.0000000 )
                  (  0.0000000 -1.0000000  0.0000000 )


      isym =  5     120 deg rotation - cart. axis [-1,-1,-1]     

 cryst.   s( 5) = (     0          1          0      )
                  (     0          0          1      )
                  (     1          0          0      )

 cart.    s( 5) = (  0.0000000  1.0000000  0.0000000 )
                  (  0.0000000  0.0000000  1.0000000 )
                  (  1.0000000  0.0000000  0.0000000 )


      isym =  6     120 deg rotation - cart. axis [1,1,1]        

 cryst.   s( 6) = (     0          0          1      )
                  (     1          0          0      )
                  (     0          1          0      )

 cart.    s( 6) = (  0.0000000  0.0000000  1.0000000 )
                  (  1.0000000  0.0000000  0.0000000 )
                  (  0.0000000  1.0000000  0.0000000 )


      isym =  7     inversion                                    

 cryst.   s( 7) = (    -1          0          0      )
                  (     0         -1          0      )
                  (     0          0         -1      )

 cart.    s( 7) = ( -1.0000000  0.0000000  0.0000000 )
                  (  0.0000000 -1.0000000  0.0000000 )
                  (  0.0000000  0.0000000 -1.0000000 )


      isym =  8     inv. 180 deg rotation - cart. axis [1,-1,0]  

 cryst.   s( 8) = (     1          0          0      )
                  (     0          0          1      )
                  (     0          1          0      )

 cart.    s( 8) = (  0.0000000  1.0000000  0.0000000 )
                  (  1.0000000  0.0000000  0.0000000 )
                  (  0.0000000  0.0000000  1.0000000 )


      isym =  9     inv. 180 deg rotation - cart. axis [-1,0,1]  

 cryst.   s( 9) = (     0          0          1      )
                  (     0          1          0      )
                  (     1          0          0      )

 cart.    s( 9) = (  0.0000000  0.0000000  1.0000000 )
                  (  0.0000000  1.0000000  0.0000000 )
                  (  1.0000000  0.0000000  0.0000000 )


      isym = 10     inv. 180 deg rotation - cart. axis [0,1,-1]  

 cryst.   s(10) = (     0          1          0      )
                  (     1          0          0      )
                  (     0          0          1      )

 cart.    s(10) = (  1.0000000  0.0000000  0.0000000 )
                  (  0.0000000  0.0000000  1.0000000 )
                  (  0.0000000  1.0000000  0.0000000 )


      isym = 11     inv. 120 deg rotation - cart. axis [-1,-1,-1]

 cryst.   s(11) = (     0         -1          0      )
                  (     0          0         -1      )
                  (    -1          0          0      )

 cart.    s(11) = (  0.0000000 -1.0000000  0.0000000 )
                  (  0.0000000  0.0000000 -1.0000000 )
                  ( -1.0000000  0.0000000  0.0000000 )


      isym = 12     inv. 120 deg rotation - cart. axis [1,1,1]   

 cryst.   s(12) = (     0          0         -1      )
                  (    -1          0          0      )
                  (     0         -1          0      )

 cart.    s(12) = (  0.0000000  0.0000000 -1.0000000 )
                  ( -1.0000000  0.0000000  0.0000000 )
                  (  0.0000000 -1.0000000  0.0000000 )


   Cartesian axes

     site n.     atom                  positions (alat units)
         1           Fe1 tau(   1) = (   0.0000000   0.0000000   0.0000000  )
         2           Fe2 tau(   2) = (   1.0000000   1.0000000   1.0000000  )
         3           O   tau(   3) = (   0.5000000   0.5000000   0.5000000  )
         4           O   tau(   4) = (   1.5000000   1.5000000   1.5000000  )

   Crystallographic axes

     site n.     atom                  positions (cryst. coord.)
         1           Fe1 tau(   1) = (  0.0000000  0.0000000  0.0000000  )
         2           Fe2 tau(   2) = (  0.5000000  0.5000000  0.5000000  )
         3           O   tau(   3) = (  0.2500000  0.2500000  0.2500000  )
         4           O   tau(   4) = (  0.7500000  0.7500000  0.7500000  )

     number of k points=    32  Marzari-Vanderbilt smearing, width (Ry)=  0.0200
                       cart. coord. in units 2pi/alat
        k(    1) = (   0.0000000   0.0000000   0.0000000), wk =   0.0046296
        k(    2) = (   0.2500000  -0.0833333  -0.0833333), wk =   0.0277778
        k(    3) = (   0.5000000  -0.1666667  -0.1666667), wk =   0.0277778
        k(    4) = (  -0.7500000   0.2500000   0.2500000), wk =   0.0138889
        k(    5) = (   0.1666667   0.1666667  -0.1666667), wk =   0.0277778
        k(    6) = (   0.4166667   0.0833333  -0.2500000), wk =   0.0555556
        k(    7) = (  -0.8333333   0.5000000   0.1666667), wk =   0.0555556
        k(    8) = (  -0.5833333   0.4166667   0.0833333), wk =   0.0555556
        k(    9) = (  -0.3333333   0.3333333  -0.0000000), wk =   0.0277778
        k(   10) = (   0.3333333   0.3333333  -0.3333333), wk =   0.0277778
        k(   11) = (  -0.9166667   0.7500000   0.0833333), wk =   0.0555556
        k(   12) = (  -0.6666667   0.6666667   0.0000000), wk =   0.0277778
        k(   13) = (  -0.5000000  -0.5000000   0.5000000), wk =   0.0138889
        k(   14) = (   0.0833333   0.0833333   0.0833333), wk =   0.0092593
        k(   15) = (   0.3333333   0.0000000   0.0000000), wk =   0.0277778
        k(   16) = (  -0.9166667   0.4166667   0.4166667), wk =   0.0277778
        k(   17) = (  -0.6666667   0.3333333   0.3333333), wk =   0.0277778
        k(   18) = (  -0.4166667   0.2500000   0.2500000), wk =   0.0277778
        k(   19) = (   0.2500000   0.2500000  -0.0833333), wk =   0.0277778
        k(   20) = (  -1.0000000   0.6666667   0.3333333), wk =   0.0555556
        k(   21) = (  -0.7500000   0.5833333   0.2500000), wk =   0.0555556
        k(   22) = (  -0.5000000   0.5000000   0.1666667), wk =   0.0555556
        k(   23) = (  -0.5833333  -0.5833333   0.7500000), wk =   0.0277778
        k(   24) = (  -0.3333333  -0.6666667   0.6666667), wk =   0.0555556
        k(   25) = (  -0.0833333  -0.7500000   0.5833333), wk =   0.0277778
        k(   26) = (  -0.4166667  -0.4166667   0.5833333), wk =   0.0277778
        k(   27) = (   0.1666667   0.1666667   0.1666667), wk =   0.0092593
        k(   28) = (  -1.0833333   0.5833333   0.5833333), wk =   0.0277778
        k(   29) = (  -0.8333333   0.5000000   0.5000000), wk =   0.0277778
        k(   30) = (  -0.6666667  -0.6666667   1.0000000), wk =   0.0277778
        k(   31) = (  -0.4166667  -0.7500000   0.9166667), wk =   0.0277778
        k(   32) = (  -0.2500000  -0.2500000  -0.2500000), wk =   0.0046296

                       cryst. coord.
        k(    1) = (   0.0000000   0.0000000   0.0000000), wk =   0.0046296
        k(    2) = (   0.0000000   0.0000000   0.1666667), wk =   0.0277778
        k(    3) = (   0.0000000   0.0000000   0.3333333), wk =   0.0277778
        k(    4) = (   0.0000000   0.0000000  -0.5000000), wk =   0.0138889
        k(    5) = (   0.0000000   0.1666667   0.1666667), wk =   0.0277778
        k(    6) = (   0.0000000   0.1666667   0.3333333), wk =   0.0555556
        k(    7) = (   0.0000000   0.1666667  -0.5000000), wk =   0.0555556
        k(    8) = (   0.0000000   0.1666667  -0.3333333), wk =   0.0555556
        k(    9) = (   0.0000000   0.1666667  -0.1666667), wk =   0.0277778
        k(   10) = (   0.0000000   0.3333333   0.3333333), wk =   0.0277778
        k(   11) = (   0.0000000   0.3333333  -0.5000000), wk =   0.0555556
        k(   12) = (   0.0000000   0.3333333  -0.3333333), wk =   0.0277778
        k(   13) = (   0.0000000  -0.5000000  -0.5000000), wk =   0.0138889
        k(   14) = (   0.1666667   0.1666667   0.1666667), wk =   0.0092593
        k(   15) = (   0.1666667   0.1666667   0.3333333), wk =   0.0277778
        k(   16) = (   0.1666667   0.1666667  -0.5000000), wk =   0.0277778
        k(   17) = (   0.1666667   0.1666667  -0.3333333), wk =   0.0277778
        k(   18) = (   0.1666667   0.1666667  -0.1666667), wk =   0.0277778
        k(   19) = (   0.1666667   0.3333333   0.3333333), wk =   0.0277778
        k(   20) = (   0.1666667   0.3333333  -0.5000000), wk =   0.0555556
        k(   21) = (   0.1666667   0.3333333  -0.3333333), wk =   0.0555556
        k(   22) = (   0.1666667   0.3333333  -0.1666667), wk =   0.0555556
        k(   23) = (   0.1666667  -0.5000000  -0.5000000), wk =   0.0277778
        k(   24) = (   0.1666667  -0.5000000  -0.3333333), wk =   0.0555556
        k(   25) = (   0.1666667  -0.5000000  -0.1666667), wk =   0.0277778
        k(   26) = (   0.1666667  -0.3333333  -0.3333333), wk =   0.0277778
        k(   27) = (   0.3333333   0.3333333   0.3333333), wk =   0.0092593
        k(   28) = (   0.3333333   0.3333333  -0.5000000), wk =   0.0277778
        k(   29) = (   0.3333333   0.3333333  -0.3333333), wk =   0.0277778
        k(   30) = (   0.3333333  -0.5000000  -0.5000000), wk =   0.0277778
        k(   31) = (   0.3333333  -0.5000000  -0.3333333), wk =   0.0277778
        k(   32) = (  -0.5000000  -0.5000000  -0.5000000), wk =   0.0046296

     Dense  grid:    17255 G-vectors     FFT dimensions: (  50,  50,  50)

     Smooth grid:     6111 G-vectors     FFT dimensions: (  36,  36,  36)

     Dynamical RAM for                 wfc:       0.41 MB

     Dynamical RAM for     wfc (w. buffer):       0.41 MB

     Dynamical RAM for             U proj.:       0.12 MB

     Dynamical RAM for  U proj. (w. buff.):       0.12 MB

     Dynamical RAM for           str. fact:       0.79 MB

     Dynamical RAM for           local pot:       0.00 MB

     Dynamical RAM for          nlocal pot:       0.60 MB

     Dynamical RAM for                qrad:       3.73 MB

     Dynamical RAM for          rho,v,vnew:       7.30 MB

     Dynamical RAM for           G-vectors:       1.03 MB

     Dynamical RAM for          h,s,v(r/c):       0.22 MB

     Dynamical RAM for          <psi|beta>:       0.03 MB

     Dynamical RAM for                 psi:       0.81 MB

     Dynamical RAM for                hpsi:       0.81 MB

     Dynamical RAM for                spsi:       0.81 MB

     Dynamical RAM for      wfcinit/wfcrot:       0.84 MB

     Dynamical RAM for           addusdens:      49.76 MB

     Estimated static dynamical RAM per process >      20.76 MB

     Estimated max dynamical RAM per process >      70.52 MB

     Check: negative core charge=   -0.000246
     Generating pointlists ...
     new r_m :   0.2063 (alat units)  1.6892 (a.u.) for type    1
     new r_m :   0.2063 (alat units)  1.6892 (a.u.) for type    2
     new r_m :   0.2063 (alat units)  1.6892 (a.u.) for type    3

     The potential is recalculated from file :
     ./tmp/FeO.save/charge-density


     negative rho (up, down):  2.638E-04 2.638E-04
 --- in v_hubbard ---
Hubbard energy    0.0000
 -------
     Number of +U iterations with fixed ns =  0
     Starting occupations:
 --- enter write_ns ---
 LDA+U parameters:
U( 1)     =  0.00000001
U( 2)     =  0.00000001
atom    1   Tr[ns(na)] (up, down, total) =   4.97655  1.79891  6.77546
   spin  1
    eigenvalues: 
  0.988  0.988  1.000  1.000  1.000
    eigenvectors:
  0.137  0.843  0.014  0.005  0.000
  0.013  0.000  0.001  0.653  0.333
  0.005  0.008  0.512  0.142  0.333
  0.843  0.137  0.005  0.014  0.000
  0.002  0.011  0.468  0.186  0.333
    occupations:
  0.989 -0.001 -0.001  0.000 -0.001
 -0.001  1.000  0.000 -0.001 -0.000
 -0.001  0.000  1.000  0.001 -0.000
  0.000 -0.001  0.001  0.989 -0.000
 -0.001 -0.000 -0.000 -0.000  1.000
   spin  2
    eigenvalues: 
  0.220  0.269  0.269  0.521  0.521
    eigenvectors:
  0.000  0.670  0.230  0.061  0.039
  0.333  0.050  0.016  0.014  0.586
  0.333  0.000  0.067  0.522  0.078
  0.000  0.230  0.670  0.039  0.061
  0.333  0.050  0.017  0.364  0.236
    occupations:
  0.294 -0.031 -0.031  0.000 -0.062
 -0.031  0.404 -0.092 -0.053  0.092
 -0.031 -0.092  0.404  0.053  0.092
  0.000 -0.053  0.053  0.294 -0.000
 -0.062  0.092  0.092 -0.000  0.404
atomic mag. moment =   3.17764
atom    2   Tr[ns(na)] (up, down, total) =   1.79891  4.97655  6.77546
   spin  1
    eigenvalues: 
  0.220  0.269  0.269  0.521  0.521
    eigenvectors:
  0.000  0.066  0.834  0.046  0.054
  0.333  0.063  0.004  0.054  0.546
  0.333  0.032  0.034  0.572  0.029
  0.000  0.834  0.066  0.054  0.046
  0.333  0.005  0.062  0.275  0.325
    occupations:
  0.294 -0.031 -0.031  0.000 -0.062
 -0.031  0.404 -0.092 -0.053  0.092
 -0.031 -0.092  0.404  0.053  0.092
  0.000 -0.053  0.053  0.294 -0.000
 -0.062  0.092  0.092 -0.000  0.404
   spin  2
    eigenvalues: 
  0.988  0.988  1.000  1.000  1.000
    eigenvectors:
  0.099  0.882  0.012  0.008  0.000
  0.012  0.001  0.015  0.639  0.333
  0.006  0.007  0.568  0.086  0.333
  0.882  0.099  0.008  0.012  0.000
  0.001  0.012  0.397  0.256  0.333
    occupations:
  0.989 -0.001 -0.001  0.000 -0.001
 -0.001  1.000  0.000 -0.001 -0.000
 -0.001  0.000  1.000  0.001 -0.000
  0.000 -0.001  0.001  0.989 -0.000
 -0.001 -0.000 -0.000 -0.000  1.000
atomic mag. moment =  -3.17763
N of occupied +U levels =   13.550917
 --- exit write_ns ---
 Atomic wfc used for LDA+U Projector are NOT orthogonalized
     Starting wfcs are   34 randomized atomic wfcs +    1 random wfcs
     Checking if some PAW data can be deallocated... 

     Band Structure Calculation
     Davidson diagonalization with overlap

     Computing kpt #:     1  of    64
     total cpu time spent up to now is        2.4 secs

     Computing kpt #:     2  of    64
     total cpu time spent up to now is        3.1 secs

     Computing kpt #:     3  of    64
     total cpu time spent up to now is        3.8 secs

     Computing kpt #:     4  of    64
     total cpu time spent up to now is        4.4 secs

     Computing kpt #:     5  of    64
     total cpu time spent up to now is        5.0 secs

     Computing kpt #:     6  of    64
     total cpu time spent up to now is        5.7 secs

     Computing kpt #:     7  of    64
     total cpu time spent up to now is        6.3 secs

     Computing kpt #:     8  of    64
     total cpu time spent up to now is        7.0 secs

     Computing kpt #:     9  of    64
     total cpu time spent up to now is        7.6 secs

     Computing kpt #:    10  of    64
     total cpu time spent up to now is        8.2 secs

     Computing kpt #:    11  of    64
     total cpu time spent up to now is        8.8 secs

     Computing kpt #:    12  of    64
     total cpu time spent up to now is        9.4 secs

     Computing kpt #:    13  of    64
     total cpu time spent up to now is        9.9 secs

     Computing kpt #:    14  of    64
     total cpu time spent up to now is       10.5 secs

     Computing kpt #:    15  of    64
     total cpu time spent up to now is       11.1 secs

     Computing kpt #:    16  of    64
     total cpu time spent up to now is       11.7 secs

     Computing kpt #:    17  of    64
     total cpu time spent up to now is       12.3 secs

     Computing kpt #:    18  of    64
     total cpu time spent up to now is       12.9 secs

     Computing kpt #:    19  of    64
     total cpu time spent up to now is       13.6 secs

     Computing kpt #:    20  of    64
     total cpu time spent up to now is       14.2 secs

     Computing kpt #:    21  of    64
     total cpu time spent up to now is       14.9 secs

     Computing kpt #:    22  of    64
     total cpu time spent up to now is       15.5 secs

     Computing kpt #:    23  of    64
     total cpu time spent up to now is       16.1 secs

     Computing kpt #:    24  of    64
     total cpu time spent up to now is       16.7 secs

     Computing kpt #:    25  of    64
     total cpu time spent up to now is       17.3 secs

     Computing kpt #:    26  of    64
     total cpu time spent up to now is       17.9 secs

     Computing kpt #:    27  of    64
     total cpu time spent up to now is       18.5 secs

     Computing kpt #:    28  of    64
     total cpu time spent up to now is       19.1 secs

     Computing kpt #:    29  of    64
     total cpu time spent up to now is       19.7 secs

     Computing kpt #:    30  of    64
     total cpu time spent up to now is       20.3 secs

     Computing kpt #:    31  of    64
     total cpu time spent up to now is       21.0 secs

     Computing kpt #:    32  of    64
     total cpu time spent up to now is       21.7 secs

     Computing kpt #:    33  of    64
     total cpu time spent up to now is       22.2 secs

     Computing kpt #:    34  of    64
     total cpu time spent up to now is       22.9 secs

     Computing kpt #:    35  of    64
     total cpu time spent up to now is       23.6 secs

     Computing kpt #:    36  of    64
     total cpu time spent up to now is       24.2 secs

     Computing kpt #:    37  of    64
     total cpu time spent up to now is       24.9 secs

     Computing kpt #:    38  of    64
     total cpu time spent up to now is       25.5 secs

     Computing kpt #:    39  of    64
     total cpu time spent up to now is       26.1 secs

     Computing kpt #:    40  of    64
     total cpu time spent up to now is       26.8 secs

     Computing kpt #:    41  of    64
     total cpu time spent up to now is       27.4 secs

     Computing kpt #:    42  of    64
     total cpu time spent up to now is       28.0 secs

     Computing kpt #:    43  of    64
     total cpu time spent up to now is       28.7 secs

     Computing kpt #:    44  of    64
     total cpu time spent up to now is       29.3 secs

     Computing kpt #:    45  of    64
     total cpu time spent up to now is       29.8 secs

     Computing kpt #:    46  of    64
     total cpu time spent up to now is       30.4 secs

     Computing kpt #:    47  of    64
     total cpu time spent up to now is       31.2 secs

     Computing kpt #:    48  of    64
     total cpu time spent up to now is       31.8 secs

     Computing kpt #:    49  of    64
     total cpu time spent up to now is       32.5 secs

     Computing kpt #:    50  of    64
     total cpu time spent up to now is       33.1 secs

     Computing kpt #:    51  of    64
     total cpu time spent up to now is       33.8 secs

     Computing kpt #:    52  of    64
     total cpu time spent up to now is       34.4 secs

     Computing kpt #:    53  of    64
     total cpu time spent up to now is       35.0 secs

     Computing kpt #:    54  of    64
     total cpu time spent up to now is       35.7 secs

     Computing kpt #:    55  of    64
     total cpu time spent up to now is       36.2 secs

     Computing kpt #:    56  of    64
     total cpu time spent up to now is       36.9 secs

     Computing kpt #:    57  of    64
     total cpu time spent up to now is       37.5 secs

     Computing kpt #:    58  of    64
     total cpu time spent up to now is       38.1 secs

     Computing kpt #:    59  of    64
     total cpu time spent up to now is       38.7 secs

     Computing kpt #:    60  of    64
     total cpu time spent up to now is       39.3 secs

     Computing kpt #:    61  of    64
     total cpu time spent up to now is       39.9 secs

     Computing kpt #:    62  of    64
     total cpu time spent up to now is       40.5 secs

     Computing kpt #:    63  of    64
     total cpu time spent up to now is       41.2 secs

     Computing kpt #:    64  of    64
     total cpu time spent up to now is       41.9 secs

     ethr =  2.27E-12,  avg # of iterations = 30.0

     total cpu time spent up to now is       41.9 secs

     End of band structure calculation

 ------ SPIN UP ------------


          k = 0.0000 0.0000 0.0000 (   731 PWs)   bands (ev):

   -75.8530 -71.9493 -41.6114 -41.4536 -41.4536 -37.7562 -37.7222 -37.7222
    -6.3926  -5.2077   5.7071   7.9087   7.9087  10.4096  10.5746  10.5746
    10.6579  10.6745  10.6745  11.5589  11.5589  13.4349  13.4349  14.0690
    14.6610  15.6341  15.6341  19.2011  23.0748  28.8622  28.8622  29.2236
    31.0498  31.0588  31.0588

     occupation numbers 
     1.0000   1.0000   1.0000   1.0000   1.0000   1.0000   1.0000   1.0000
     1.0000   1.0000   1.0000   1.0000   1.0000   1.0000   1.0000   1.0000
     1.0000   1.0000   1.0000   1.0000   1.0000   0.9366   0.9366   0.0031
     0.0000   0.0000   0.0000   0.0000   0.0000   0.0000   0.0000   0.0000
     0.0000   0.0000   0.0000

          k = 0.2500-0.0833-0.0833 (   751 PWs)   bands (ev):

   -75.8610 -71.9567 -41.6322 -41.4929 -41.4780 -37.7808 -37.7632 -37.7475
    -6.1566  -5.2013   6.1870   7.8672   8.0324   8.7439   9.7629   9.7782
    10.4151  10.9817  11.0457  11.8436  12.1341  13.3707  13.6281  14.1128
    15.1341  15.5618  16.3403  20.6080  22.9939  26.3614  27.1064  29.6380
    30.7010  30.8004  33.7895

     occupation numbers 
     1.0000   1.0000   1.0000   1.0000   1.0000   1.0000   1.0000   1.0000
     1.0000   1.0000   1.0000   1.0000   1.0000   1.0000   1.0000   1.0000
     1.0000   1.0000   1.0000   1.0000   1.0000   1.0307   0.4477   0.0014
     0.0000   0.0000   0.0000   0.0000   0.0000   0.0000   0.0000   0.0000
     0.0000   0.0000   0.0000

          k = 0.5000-0.1667-0.1667 (   758 PWs)   bands (ev):

   -75.8615 -71.9566 -41.6312 -41.5363 -41.4830 -37.8108 -37.7782 -37.7535
    -5.6331  -5.1838   6.9664   7.1084   7.7081   8.1963   8.7278   9.2028
    10.3073  11.0332  11.2691  12.0067  12.3185  13.1597  13.9922  14.3890
    15.1585  15.4249  18.9217  22.5048  23.0392  23.7903  25.0630  27.9936
    30.0459  30.6312  32.1559

     occupation numbers 
     1.0000   1.0000   1.0000   1.0000   1.0000   1.0000   1.0000   1.0000
     1.0000   1.0000   1.0000   1.0000   1.0000   1.0000   1.0000   1.0000
     1.0000   1.0000   1.0000   1.0000   1.0000   1.0608   0.0106   0.0000
     0.0000   0.0000   0.0000   0.0000   0.0000   0.0000   0.0000   0.0000
     0.0000   0.0000   0.0000

          k =-0.7500 0.2500 0.2500 (   764 PWs)   bands (ev):

   -75.8622 -71.9570 -41.6373 -41.5592 -41.4877 -37.8343 -37.7850 -37.7582
    -5.2687  -5.2480   6.6890   6.9790   7.6828   8.2179   8.3788   9.0357
    10.2068  10.9983  11.2891  12.2310  12.5338  13.0162  14.1359  14.5391
    15.3661  15.3855  20.8187  21.2607  23.1693  23.6538  25.2393  25.3856
    30.0047  30.3703  32.1070

     occupation numbers 
     1.0000   1.0000   1.0000   1.0000   1.0000   1.0000   1.0000   1.0000
     1.0000   1.0000   1.0000   1.0000   1.0000   1.0000   1.0000   1.0000
     1.0000   1.0000   1.0000   1.0000   1.0000   1.0185   0.0009   0.0000
     0.0000   0.0000   0.0000   0.0000   0.0000   0.0000   0.0000   0.0000
     0.0000   0.0000   0.0000

          k = 0.1667 0.1667-0.1667 (   749 PWs)   bands (ev):

   -75.8603 -71.9560 -41.6262 -41.4954 -41.4748 -37.7750 -37.7657 -37.7445
    -6.1314  -5.2334   6.2570   7.8488   8.1411   8.7768   9.5337   9.5580
    10.4902  10.8943  10.9143  12.2356  12.2497  13.3083  13.6642  14.1180
    15.3483  15.4040  16.2470  20.4643  23.1246  26.5421  26.8167  29.5631
    30.9420  30.9634  33.3935

     occupation numbers 
     1.0000   1.0000   1.0000   1.0000   1.0000   1.0000   1.0000   1.0000
     1.0000   1.0000   1.0000   1.0000   1.0000   1.0000   1.0000   1.0000
     1.0000   1.0000   1.0000   1.0000   1.0000   1.0751   0.3570   0.0013
     0.0000   0.0000   0.0000   0.0000   0.0000   0.0000   0.0000   0.0000
     0.0000   0.0000   0.0000

          k = 0.4167 0.0833-0.2500 (   763 PWs)   bands (ev):

   -75.8641 -71.9592 -41.6277 -41.5380 -41.5029 -37.8094 -37.7763 -37.7715
    -5.7386  -5.2243   6.8775   7.3101   7.9269   8.2342   8.6952   9.1408
    10.5240  11.0727  11.1868  11.8391  12.2453  13.5597  13.6712  14.3090
    15.1256  15.4311  18.2958  21.6288  23.5527  24.6097  25.3650  28.3491
    29.5210  30.9912  32.4922

     occupation numbers 
     1.0000   1.0000   1.0000   1.0000   1.0000   1.0000   1.0000   1.0000
     1.0000   1.0000   1.0000   1.0000   1.0000   1.0000   1.0000   1.0000
     1.0000   1.0000   1.0000   1.0000   1.0000   0.6345   0.3404   0.0000
     0.0000   0.0000   0.0000   0.0000   0.0000   0.0000   0.0000   0.0000
     0.0000   0.0000   0.0000

          k =-0.8333 0.5000 0.1667 (   770 PWs)   bands (ev):

   -75.8647 -71.9595 -41.6279 -41.5636 -41.5223 -37.8368 -37.7939 -37.7733
    -5.3369  -5.1843   6.8287   6.9730   7.7954   8.1916   8.4455   8.5131
    10.5130  11.0457  11.3027  11.9907  12.1970  13.4758  13.9792  14.4460
    15.2628  15.4677  20.6331  22.4917  22.6683  24.3962  24.6905  24.9587
    29.2571  30.0834  32.5122

     occupation numbers 
     1.0000   1.0000   1.0000   1.0000   1.0000   1.0000   1.0000   1.0000
     1.0000   1.0000   1.0000   1.0000   1.0000   1.0000   1.0000   1.0000
     1.0000   1.0000   1.0000   1.0000   1.0000   0.8513   0.0128   0.0000
     0.0000   0.0000   0.0000   0.0000   0.0000   0.0000   0.0000   0.0000
     0.0000   0.0000   0.0000

          k =-0.5833 0.4167 0.0833 (   769 PWs)   bands (ev):

   -75.8650 -71.9596 -41.6305 -41.5601 -41.5220 -37.8332 -37.7934 -37.7764
    -5.3345  -5.1880   6.6443   7.4514   7.7779   8.1122   8.2982   8.4152
    10.5437  11.0562  11.3295  11.9704  12.1495  13.4594  13.9901  14.4445
    15.1383  15.6740  20.3737  22.2928  23.5426  23.9736  24.1655  25.6284
    28.7733  30.3726  33.3205

     occupation numbers 
     1.0000   1.0000   1.0000   1.0000   1.0000   1.0000   1.0000   1.0000
     1.0000   1.0000   1.0000   1.0000   1.0000   1.0000   1.0000   1.0000
     1.0000   1.0000   1.0000   1.0000   1.0000   0.8876   0.0109   0.0000
     0.0000   0.0000   0.0000   0.0000   0.0000   0.0000   0.0000   0.0000
     0.0000   0.0000   0.0000

          k =-0.3333 0.3333-0.0000 (   761 PWs)   bands (ev):

   -75.8634 -71.9587 -41.6254 -41.5400 -41.4967 -37.8110 -37.7758 -37.7645
    -5.7758  -5.1842   6.9351   7.4271   7.7820   8.2056   8.6476   9.1033
    10.5382  11.0663  11.3041  11.7695  12.2706  13.5717  13.6484  14.3000
    15.1697  15.4975  18.0445  22.4926  22.6665  24.6441  25.5055  28.2049
    29.2542  32.0579  32.4456

     occupation numbers 
     1.0000   1.0000   1.0000   1.0000   1.0000   1.0000   1.0000   1.0000
     1.0000   1.0000   1.0000   1.0000   1.0000   1.0000   1.0000   1.0000
     1.0000   1.0000   1.0000   1.0000   1.0000   0.6012   0.3957   0.0000
     0.0000   0.0000   0.0000   0.0000   0.0000   0.0000   0.0000   0.0000
     0.0000   0.0000   0.0000

          k = 0.3333 0.3333-0.3333 (   753 PWs)   bands (ev):

   -75.8580 -71.9535 -41.6073 -41.5408 -41.4719 -37.8146 -37.7558 -37.7434
    -5.5395  -5.2822   6.6231   7.1542   8.0613   8.2480   8.7223   9.1273
    10.3136  11.0244  11.0536  12.2809  12.3545  13.1902  14.0244  14.3533
    15.4587  15.5404  18.4818  20.9430  23.8179  24.2460  24.7009  29.7561
    29.8015  30.7261  31.3375

     occupation numbers 
     1.0000   1.0000   1.0000   1.0000   1.0000   1.0000   1.0000   1.0000
     1.0000   1.0000   1.0000   1.0000   1.0000   1.0000   1.0000   1.0000
     1.0000   1.0000   1.0000   1.0000   1.0000   1.0707   0.0064   0.0000
     0.0000   0.0000   0.0000   0.0000   0.0000   0.0000   0.0000   0.0000
     0.0000   0.0000   0.0000

          k =-0.9167 0.7500 0.0833 (   764 PWs)   bands (ev):

   -75.8627 -71.9573 -41.6152 -41.5551 -41.5155 -37.8282 -37.7866 -37.7629
    -5.2748  -5.2438   6.2574   7.3676   7.9763   8.1144   8.3343   8.8930
    10.5108  11.0128  11.0639  12.0971  12.2893  13.4925  14.0071  14.4381
    15.3039  15.6815  20.0407  21.2869  23.3487  23.7783  24.4381  26.9857
    29.6030  29.9897  32.0769

     occupation numbers 
     1.0000   1.0000   1.0000   1.0000   1.0000   1.0000   1.0000   1.0000
     1.0000   1.0000   1.0000   1.0000   1.0000   1.0000   1.0000   1.0000
     1.0000   1.0000   1.0000   1.0000   1.0000   0.8118   0.0084   0.0000
     0.0000   0.0000   0.0000   0.0000   0.0000   0.0000   0.0000   0.0000
     0.0000   0.0000   0.0000

          k =-0.6667 0.6667 0.0000 (   767 PWs)   bands (ev):

   -75.8641 -71.9587 -41.6163 -41.5528 -41.5448 -37.8241 -37.8184 -37.7634
    -5.1846  -5.1842   6.9724   7.0469   7.6723   7.8717   8.1924   8.4228
    10.5760  11.1363  11.1780  12.0270  12.2941  13.8553  13.9190  14.2634
    15.3626  15.5015  22.2870  22.4829  22.7044  23.2357  23.8051  24.6567
    29.2614  30.5860  32.5855

     occupation numbers 
     1.0000   1.0000   1.0000   1.0000   1.0000   1.0000   1.0000   1.0000
     1.0000   1.0000   1.0000   1.0000   1.0000   1.0000   1.0000   1.0000
     1.0000   1.0000   1.0000   1.0000   1.0000   0.0639   0.0293   0.0001
     0.0000   0.0000   0.0000   0.0000   0.0000   0.0000   0.0000   0.0000
     0.0000   0.0000   0.0000

          k =-0.5000-0.5000 0.5000 (   780 PWs)   bands (ev):

   -75.8688 -71.9633 -41.6453 -41.5903 -41.5270 -37.8624 -37.7947 -37.7907
    -5.3067  -5.2087   5.7395   7.2860   7.9363   7.9583   9.5313   9.5409
     9.7887  10.9690  11.0437  11.9807  12.1539  13.2704  14.1556  14.5295
    15.7013  15.8050  19.1901  20.3211  23.1291  23.7114  24.9931  28.8444
    28.8686  30.9986  31.0013

     occupation numbers 
     1.0000   1.0000   1.0000   1.0000   1.0000   1.0000   1.0000   1.0000
     1.0000   1.0000   1.0000   1.0000   1.0000   1.0000   1.0000   1.0000
     1.0000   1.0000   1.0000   1.0000   1.0000   1.0831   0.0007   0.0000
     0.0000   0.0000   0.0000   0.0000   0.0000   0.0000   0.0000   0.0000
     0.0000   0.0000   0.0000

          k = 0.0833 0.0833 0.0833 (   755 PWs)   bands (ev):

   -75.8628 -71.9587 -41.6429 -41.4802 -41.4802 -37.7909 -37.7484 -37.7484
    -6.3305  -5.2971   5.9315   7.9866   7.9866   9.8123  10.2371  10.2371
    10.5977  10.5977  10.6757  11.9291  11.9291  13.4147  13.4147  14.0137
    15.1216  15.5666  15.5666  19.0629  23.3561  28.2493  29.1200  29.1200
    31.0494  31.0494  32.0714

     occupation numbers 
     1.0000   1.0000   1.0000   1.0000   1.0000   1.0000   1.0000   1.0000
     1.0000   1.0000   1.0000   1.0000   1.0000   1.0000   1.0000   1.0000
     1.0000   1.0000   1.0000   1.0000   1.0000   0.9716   0.9716   0.0076
     0.0000   0.0000   0.0000   0.0000   0.0000   0.0000   0.0000   0.0000
     0.0000   0.0000   0.0000

          k = 0.3333 0.0000 0.0000 (   754 PWs)   bands (ev):

   -75.8616 -71.9573 -41.6316 -41.5031 -41.4773 -37.7802 -37.7726 -37.7468
    -6.0657  -5.3107   6.3766   7.9006   8.0414   8.4470   9.8007   9.8099
    10.3703  11.1458  11.1835  11.6463  11.8146  13.4362  13.6110  14.1029
    14.8120  15.6400  17.0420  20.1042  23.5878  26.3906  26.9031  30.1595
    30.5642  30.5899  31.6946

     occupation numbers 
     1.0000   1.0000   1.0000   1.0000   1.0000   1.0000   1.0000   1.0000
     1.0000   1.0000   1.0000   1.0000   1.0000   1.0000   1.0000   1.0000
     1.0000   1.0000   1.0000   1.0000   1.0000   0.9342   0.4933   0.0017
     0.0000   0.0000   0.0000   0.0000   0.0000   0.0000   0.0000   0.0000
     0.0000   0.0000   0.0000

          k =-0.9167 0.4167 0.4167 (   762 PWs)   bands (ev):

   -75.8619 -71.9570 -41.6283 -41.5553 -41.4798 -37.8270 -37.7763 -37.7505
    -5.5924  -5.2218   6.6073   7.0513   7.9613   8.0942   9.1797   9.4346
    10.1508  11.0448  11.3606  11.7318  12.0348  13.2693  13.9833  14.4085
    14.9270  15.5866  19.4201  21.3410  23.4037  24.7270  25.4295  26.7005
    30.2390  30.6287  30.9420

     occupation numbers 
     1.0000   1.0000   1.0000   1.0000   1.0000   1.0000   1.0000   1.0000
     1.0000   1.0000   1.0000   1.0000   1.0000   1.0000   1.0000   1.0000
     1.0000   1.0000   1.0000   1.0000   1.0000   1.0831   0.0120   0.0000
     0.0000   0.0000   0.0000   0.0000   0.0000   0.0000   0.0000   0.0000
     0.0000   0.0000   0.0000

          k =-0.6667 0.3333 0.3333 (   763 PWs)   bands (ev):

   -75.8620 -71.9569 -41.6236 -41.5678 -41.4901 -37.8418 -37.7721 -37.7607
    -5.2840  -5.2325   6.2825   7.1716   7.8344   8.1401   8.5451   9.1774
    10.1597  10.9935  11.2360  12.2012  12.3973  13.0856  14.1424  14.5365
    15.4609  15.4775  20.4118  20.9489  23.1280  23.9224  24.7031  26.5936
    29.5417  30.7210  31.3351

     occupation numbers 
     1.0000   1.0000   1.0000   1.0000   1.0000   1.0000   1.0000   1.0000
     1.0000   1.0000   1.0000   1.0000   1.0000   1.0000   1.0000   1.0000
     1.0000   1.0000   1.0000   1.0000   1.0000   1.0360   0.0008   0.0000
     0.0000   0.0000   0.0000   0.0000   0.0000   0.0000   0.0000   0.0000
     0.0000   0.0000   0.0000

          k =-0.4167 0.2500 0.2500 (   763 PWs)   bands (ev):

   -75.8634 -71.9585 -41.6311 -41.5526 -41.4910 -37.8252 -37.7783 -37.7610
    -5.6147  -5.2070   6.8892   7.2825   7.6713   8.2824   8.5397   9.0318
    10.3616  11.0378  11.1308  12.2696  12.4302  13.1171  14.0154  14.3670
    15.3455  15.4642  18.4742  21.8740  23.3147  24.1136  24.6073  29.2262
    29.8120  30.6366  31.7183

     occupation numbers 
     1.0000   1.0000   1.0000   1.0000   1.0000   1.0000   1.0000   1.0000
     1.0000   1.0000   1.0000   1.0000   1.0000   1.0000   1.0000   1.0000
     1.0000   1.0000   1.0000   1.0000   1.0000   1.0462   0.0074   0.0000
     0.0000   0.0000   0.0000   0.0000   0.0000   0.0000   0.0000   0.0000
     0.0000   0.0000   0.0000

          k = 0.2500 0.2500-0.0833 (   756 PWs)   bands (ev):

   -75.8626 -71.9583 -41.6384 -41.5049 -41.4814 -37.7867 -37.7737 -37.7507
    -5.9948  -5.3959   6.5623   7.8644   8.3009   8.4081   9.2626   9.4168
    10.5294  10.8482  11.0502  12.0154  12.4108  13.3039  13.6916  14.0954
    15.1829  15.3217  17.0064  19.8021  23.8820  26.1863  27.0414  29.7489
    29.7766  31.3883  33.0146

     occupation numbers 
     1.0000   1.0000   1.0000   1.0000   1.0000   1.0000   1.0000   1.0000
     1.0000   1.0000   1.0000   1.0000   1.0000   1.0000   1.0000   1.0000
     1.0000   1.0000   1.0000   1.0000   1.0000   1.0766   0.2946   0.0020
     0.0000   0.0000   0.0000   0.0000   0.0000   0.0000   0.0000   0.0000
     0.0000   0.0000   0.0000

          k =-1.0000 0.6667 0.3333 (   761 PWs)   bands (ev):

   -75.8622 -71.9574 -41.6269 -41.5257 -41.4982 -37.7974 -37.7751 -37.7677
    -5.6329  -5.3364   6.7896   7.1117   8.1798   8.4063   8.6682   9.2388
    10.5236  10.9733  11.1489  11.7959  12.2558  13.5654  13.6963  14.3350
    15.0119  15.3840  18.9263  20.6630  24.4534  24.8325  25.1364  27.9834
    30.0433  30.1531  32.1622

     occupation numbers 
     1.0000   1.0000   1.0000   1.0000   1.0000   1.0000   1.0000   1.0000
     1.0000   1.0000   1.0000   1.0000   1.0000   1.0000   1.0000   1.0000
     1.0000   1.0000   1.0000   1.0000   1.0000   0.6187   0.2846   0.0000
     0.0000   0.0000   0.0000   0.0000   0.0000   0.0000   0.0000   0.0000
     0.0000   0.0000   0.0000

          k =-0.7500 0.5833 0.2500 (   770 PWs)   bands (ev):

   -75.8648 -71.9594 -41.6300 -41.5639 -41.5200 -37.8375 -37.7899 -37.7760
    -5.3173  -5.2008   6.5395   6.9769   7.8461   8.2208   8.4435   8.8518
    10.4574  11.0291  11.1391  12.1489  12.2115  13.4988  13.9898  14.4423
    15.3465  15.4200  20.7030  21.3622  22.8932  24.1845  24.8971  25.5996
    29.6763  30.1211  31.9186

     occupation numbers 
     1.0000   1.0000   1.0000   1.0000   1.0000   1.0000   1.0000   1.0000
     1.0000   1.0000   1.0000   1.0000   1.0000   1.0000   1.0000   1.0000
     1.0000   1.0000   1.0000   1.0000   1.0000   0.7963   0.0110   0.0000
     0.0000   0.0000   0.0000   0.0000   0.0000   0.0000   0.0000   0.0000
     0.0000   0.0000   0.0000

          k =-0.5000 0.5000 0.1667 (   771 PWs)   bands (ev):

   -75.8659 -71.9605 -41.6300 -41.5656 -41.5275 -37.8403 -37.7973 -37.7746
    -5.3115  -5.2099   6.4110   7.5354   7.9535   8.0658   8.2881   8.5028
    10.5533  11.0442  11.1990  12.0927  12.1252  13.4643  14.0059  14.4398
    15.1636  15.7826  20.0915  21.7696  23.5900  23.7593  24.2484  26.4099
    28.9910  30.1777  32.9137

     occupation numbers 
     1.0000   1.0000   1.0000   1.0000   1.0000   1.0000   1.0000   1.0000
     1.0000   1.0000   1.0000   1.0000   1.0000   1.0000   1.0000   1.0000
     1.0000   1.0000   1.0000   1.0000   1.0000   0.8771   0.0086   0.0000
     0.0000   0.0000   0.0000   0.0000   0.0000   0.0000   0.0000   0.0000
     0.0000   0.0000   0.0000

          k =-0.5833-0.5833 0.7500 (   759 PWs)   bands (ev):

   -75.8604 -71.9556 -41.6229 -41.5411 -41.4819 -37.8151 -37.7698 -37.7525
    -5.4280  -5.3909   6.4113   7.0372   8.1234   8.2535   9.1706   9.3618
    10.1770  10.9876  11.0785  11.9868  12.1984  13.2992  14.0112  14.3523
    15.2792  15.6107  19.0265  20.2662  23.8324  24.6489  25.1088  28.3744
    29.8354  30.7873  30.9866

     occupation numbers 
     1.0000   1.0000   1.0000   1.0000   1.0000   1.0000   1.0000   1.0000
     1.0000   1.0000   1.0000   1.0000   1.0000   1.0000   1.0000   1.0000
     1.0000   1.0000   1.0000   1.0000   1.0000   1.0781   0.0079   0.0000
     0.0000   0.0000   0.0000   0.0000   0.0000   0.0000   0.0000   0.0000
     0.0000   0.0000   0.0000

          k =-0.3333-0.6667 0.6667 (   763 PWs)   bands (ev):

   -75.8621 -71.9569 -41.6147 -41.5537 -41.5136 -37.8269 -37.7847 -37.7626
    -5.2826  -5.2340   6.2894   7.1541   7.9068   8.1935   8.4084   9.0798
    10.4261  11.0172  11.0310  12.1532  12.3155  13.5104  14.0017  14.4387
    15.3842  15.5131  20.4311  20.9356  23.1385  23.9238  24.7022  26.5928
    29.5709  30.7145  31.3264

     occupation numbers 
     1.0000   1.0000   1.0000   1.0000   1.0000   1.0000   1.0000   1.0000
     1.0000   1.0000   1.0000   1.0000   1.0000   1.0000   1.0000   1.0000
     1.0000   1.0000   1.0000   1.0000   1.0000   0.7669   0.0092   0.0000
     0.0000   0.0000   0.0000   0.0000   0.0000   0.0000   0.0000   0.0000
     0.0000   0.0000   0.0000

          k =-0.0833-0.7500 0.5833 (   772 PWs)   bands (ev):

   -75.8661 -71.9605 -41.6343 -41.5525 -41.5497 -37.8284 -37.8214 -37.7766
    -5.1848  -5.1848   6.9924   7.0304   7.6933   7.8370   8.1963   8.4066
    10.5760  11.1377  11.1747  12.0202  12.2914  13.8560  13.9175  14.2631
    15.3665  15.4886  22.2720  22.5682  22.5978  23.1222  24.2408  24.2555
    29.7561  29.9127  33.3045

     occupation numbers 
     1.0000   1.0000   1.0000   1.0000   1.0000   1.0000   1.0000   1.0000
     1.0000   1.0000   1.0000   1.0000   1.0000   1.0000   1.0000   1.0000
     1.0000   1.0000   1.0000   1.0000   1.0000   0.0634   0.0299   0.0001
     0.0000   0.0000   0.0000   0.0000   0.0000   0.0000   0.0000   0.0000
     0.0000   0.0000   0.0000

          k =-0.4167-0.4167 0.5833 (   762 PWs)   bands (ev):

   -75.8612 -71.9560 -41.6152 -41.5703 -41.4906 -37.8437 -37.7635 -37.7613
    -5.2998  -5.2148   5.8854   7.2768   7.9328   8.0234   9.1121   9.4169
    10.0133  10.9796  11.1164  12.1245  12.1670  13.2106  14.1527  14.5327
    15.6336  15.6828  19.6059  20.5380  23.1512  23.7970  24.8814  28.0429
    29.0897  31.0296  31.1230

     occupation numbers 
     1.0000   1.0000   1.0000   1.0000   1.0000   1.0000   1.0000   1.0000
     1.0000   1.0000   1.0000   1.0000   1.0000   1.0000   1.0000   1.0000
     1.0000   1.0000   1.0000   1.0000   1.0000   1.0763   0.0007   0.0000
     0.0000   0.0000   0.0000   0.0000   0.0000   0.0000   0.0000   0.0000
     0.0000   0.0000   0.0000

          k = 0.1667 0.1667 0.1667 (   739 PWs)   bands (ev):

   -75.8564 -71.9525 -41.6201 -41.4566 -41.4566 -37.7713 -37.7271 -37.7271
    -6.1314  -5.5387   6.5792   8.1923   8.1923   8.7569   9.7109   9.7109
    10.6236  10.6236  10.6990  12.4317  12.4317  13.3737  13.3737  13.8896
    15.4251  15.4251  16.2393  18.5098  24.1366  26.8060  29.7841  29.7841
    30.9299  30.9299  33.4343

     occupation numbers 
     1.0000   1.0000   1.0000   1.0000   1.0000   1.0000   1.0000   1.0000
     1.0000   1.0000   1.0000   1.0000   1.0000   1.0000   1.0000   1.0000
     1.0000   1.0000   1.0000   1.0000   1.0000   1.0275   1.0275   0.0426
     0.0000   0.0000   0.0000   0.0000   0.0000   0.0000   0.0000   0.0000
     0.0000   0.0000   0.0000

          k =-1.0833 0.5833 0.5833 (   754 PWs)   bands (ev):

   -75.8612 -71.9570 -41.6315 -41.5067 -41.4688 -37.7813 -37.7756 -37.7390
    -5.8760  -5.5266   6.7871   7.5502   8.1636   8.6025   9.3355   9.5724
    10.4377  10.9925  11.2487  11.7211  11.9469  13.4407  13.6322  14.1045
    14.7195  15.5743  17.9728  19.1669  24.5780  26.1422  26.9972  29.3823
    30.3835  31.0924  31.4008

     occupation numbers 
     1.0000   1.0000   1.0000   1.0000   1.0000   1.0000   1.0000   1.0000
     1.0000   1.0000   1.0000   1.0000   1.0000   1.0000   1.0000   1.0000
     1.0000   1.0000   1.0000   1.0000   1.0000   0.9255   0.4371   0.0017
     0.0000   0.0000   0.0000   0.0000   0.0000   0.0000   0.0000   0.0000
     0.0000   0.0000   0.0000

          k =-0.8333 0.5000 0.5000 (   762 PWs)   bands (ev):

   -75.8617 -71.9568 -41.6275 -41.5501 -41.4842 -37.8224 -37.7750 -37.7545
    -5.5061  -5.3112   6.3974   6.9861   8.0693   8.1834   9.5262   9.5302
    10.0108  11.0807  11.1355  11.8586  11.9006  13.3367  13.9940  14.3836
    14.9872  15.6749  19.7894  20.1189  23.5855  25.4167  25.6235  26.4144
    30.0894  30.6005  30.6709

     occupation numbers 
     1.0000   1.0000   1.0000   1.0000   1.0000   1.0000   1.0000   1.0000
     1.0000   1.0000   1.0000   1.0000   1.0000   1.0000   1.0000   1.0000
     1.0000   1.0000   1.0000   1.0000   1.0000   1.0602   0.0103   0.0000
     0.0000   0.0000   0.0000   0.0000   0.0000   0.0000   0.0000   0.0000
     0.0000   0.0000   0.0000

          k =-0.6667-0.6667 1.0000 (   752 PWs)   bands (ev):

   -75.8608 -71.9566 -41.6238 -41.4988 -41.4756 -37.7813 -37.7618 -37.7454
    -5.7761  -5.6321   7.0306   7.3846   8.3175   8.6547   9.0959   9.2785
    10.5042  10.8862  11.2187  11.7796  12.2773  13.3705  13.6754  14.0861
    14.9208  15.4138  18.0457  18.9363  25.0058  25.5589  27.9820  28.1993
    30.0869  32.0568  32.1789

     occupation numbers 
     1.0000   1.0000   1.0000   1.0000   1.0000   1.0000   1.0000   1.0000
     1.0000   1.0000   1.0000   1.0000   1.0000   1.0000   1.0000   1.0000
     1.0000   1.0000   1.0000   1.0000   1.0000   1.0309   0.3307   0.0023
     0.0000   0.0000   0.0000   0.0000   0.0000   0.0000   0.0000   0.0000
     0.0000   0.0000   0.0000

          k =-0.4167-0.7500 0.9167 (   762 PWs)   bands (ev):

   -75.8622 -71.9574 -41.6191 -41.5264 -41.5056 -37.7977 -37.7770 -37.7661
    -5.4883  -5.4835   6.7780   7.0015   8.2742   8.5818   8.5897   9.2328
    10.5853  10.8480  11.1934  11.7059  12.2682  13.5733  13.7037  14.3497
    14.9784  15.3573  19.6107  19.8126  24.6254  24.8357  26.3270  26.4971
    30.2602  30.4510  31.9177

     occupation numbers 
     1.0000   1.0000   1.0000   1.0000   1.0000   1.0000   1.0000   1.0000
     1.0000   1.0000   1.0000   1.0000   1.0000   1.0000   1.0000   1.0000
     1.0000   1.0000   1.0000   1.0000   1.0000   0.5967   0.2691   0.0000
     0.0000   0.0000   0.0000   0.0000   0.0000   0.0000   0.0000   0.0000
     0.0000   0.0000   0.0000

          k =-0.2500-0.2500-0.2500 (   748 PWs)   bands (ev):

   -75.8607 -71.9567 -41.6435 -41.4666 -41.4666 -37.7931 -37.7363 -37.7363
    -5.8591  -5.8336   7.3202   7.7838   8.3146   8.3146   9.4488   9.4488
    10.6370  10.6370  10.6908  12.6354  12.6354  13.3527  13.3527  13.8286
    15.3290  15.3290  17.2649  17.6001  25.0700  25.6460  30.4153  30.4153
    30.5244  30.5244  34.0061

     occupation numbers 
     1.0000   1.0000   1.0000   1.0000   1.0000   1.0000   1.0000   1.0000
     1.0000   1.0000   1.0000   1.0000   1.0000   1.0000   1.0000   1.0000
     1.0000   1.0000   1.0000   1.0000   1.0000   1.0481   1.0481   0.0858
     0.0000   0.0000   0.0000   0.0000   0.0000   0.0000   0.0000   0.0000
     0.0000   0.0000   0.0000

 ------ SPIN DOWN ----------


          k = 0.0000 0.0000 0.0000 (   731 PWs)   bands (ev):

   -75.8529 -71.9494 -41.6114 -41.4536 -41.4536 -37.7563 -37.7222 -37.7222
    -6.3926  -5.2077   5.7071   7.9087   7.9087  10.4096  10.5746  10.5746
    10.6579  10.6745  10.6745  11.5589  11.5589  13.4348  13.4348  14.0690
    14.6610  15.6341  15.6341  19.2011  23.0748  28.8622  28.8622  29.2236
    31.0498  31.0588  31.0588

     occupation numbers 
     1.0000   1.0000   1.0000   1.0000   1.0000   1.0000   1.0000   1.0000
     1.0000   1.0000   1.0000   1.0000   1.0000   1.0000   1.0000   1.0000
     1.0000   1.0000   1.0000   1.0000   1.0000   0.9367   0.9367   0.0031
     0.0000   0.0000   0.0000   0.0000   0.0000   0.0000   0.0000   0.0000
     0.0000   0.0000   0.0000

          k = 0.2500-0.0833-0.0833 (   751 PWs)   bands (ev):

   -75.8609 -71.9567 -41.6322 -41.4928 -41.4779 -37.7809 -37.7633 -37.7476
    -6.1566  -5.2013   6.1870   7.8672   8.0324   8.7439   9.7629   9.7782
    10.4151  10.9818  11.0457  11.8437  12.1342  13.3707  13.6281  14.1127
    15.1340  15.5617  16.3403  20.6080  22.9939  26.3614  27.1064  29.6380
    30.7010  30.8004  33.7895

     occupation numbers 
     1.0000   1.0000   1.0000   1.0000   1.0000   1.0000   1.0000   1.0000
     1.0000   1.0000   1.0000   1.0000   1.0000   1.0000   1.0000   1.0000
     1.0000   1.0000   1.0000   1.0000   1.0000   1.0308   0.4477   0.0014
     0.0000   0.0000   0.0000   0.0000   0.0000   0.0000   0.0000   0.0000
     0.0000   0.0000   0.0000

          k = 0.5000-0.1667-0.1667 (   758 PWs)   bands (ev):

   -75.8615 -71.9566 -41.6311 -41.5362 -41.4829 -37.8109 -37.7783 -37.7535
    -5.6331  -5.1838   6.9664   7.1084   7.7081   8.1963   8.7278   9.2028
    10.3073  11.0333  11.2692  12.0068  12.3185  13.1597  13.9922  14.3889
    15.1585  15.4249  18.9217  22.5048  23.0392  23.7903  25.0630  27.9936
    30.0459  30.6312  32.1559

     occupation numbers 
     1.0000   1.0000   1.0000   1.0000   1.0000   1.0000   1.0000   1.0000
     1.0000   1.0000   1.0000   1.0000   1.0000   1.0000   1.0000   1.0000
     1.0000   1.0000   1.0000   1.0000   1.0000   1.0608   0.0106   0.0000
     0.0000   0.0000   0.0000   0.0000   0.0000   0.0000   0.0000   0.0000
     0.0000   0.0000   0.0000

          k =-0.7500 0.2500 0.2500 (   764 PWs)   bands (ev):

   -75.8621 -71.9571 -41.6373 -41.5592 -41.4877 -37.8344 -37.7851 -37.7583
    -5.2687  -5.2480   6.6890   6.9790   7.6828   8.2179   8.3788   9.0357
    10.2069  10.9983  11.2891  12.2310  12.5339  13.0162  14.1359  14.5390
    15.3661  15.3855  20.8187  21.2607  23.1693  23.6538  25.2393  25.3856
    30.0047  30.3703  32.1070

     occupation numbers 
     1.0000   1.0000   1.0000   1.0000   1.0000   1.0000   1.0000   1.0000
     1.0000   1.0000   1.0000   1.0000   1.0000   1.0000   1.0000   1.0000
     1.0000   1.0000   1.0000   1.0000   1.0000   1.0185   0.0009   0.0000
     0.0000   0.0000   0.0000   0.0000   0.0000   0.0000   0.0000   0.0000
     0.0000   0.0000   0.0000

          k = 0.1667 0.1667-0.1667 (   749 PWs)   bands (ev):

   -75.8603 -71.9560 -41.6262 -41.4954 -41.4748 -37.7751 -37.7657 -37.7445
    -6.1314  -5.2334   6.2570   7.8488   8.1411   8.7768   9.5338   9.5580
    10.4903  10.8943  10.9143  12.2356  12.2497  13.3082  13.6642  14.1180
    15.3483  15.4040  16.2470  20.4643  23.1246  26.5421  26.8167  29.5631
    30.9420  30.9634  33.3935

     occupation numbers 
     1.0000   1.0000   1.0000   1.0000   1.0000   1.0000   1.0000   1.0000
     1.0000   1.0000   1.0000   1.0000   1.0000   1.0000   1.0000   1.0000
     1.0000   1.0000   1.0000   1.0000   1.0000   1.0751   0.3571   0.0013
     0.0000   0.0000   0.0000   0.0000   0.0000   0.0000   0.0000   0.0000
     0.0000   0.0000   0.0000

          k = 0.4167 0.0833-0.2500 (   763 PWs)   bands (ev):

   -75.8641 -71.9593 -41.6276 -41.5379 -41.5028 -37.8095 -37.7763 -37.7715
    -5.7386  -5.2243   6.8775   7.3101   7.9269   8.2342   8.6952   9.1408
    10.5240  11.0727  11.1869  11.8391  12.2453  13.5597  13.6712  14.3089
    15.1256  15.4310  18.2958  21.6288  23.5527  24.6097  25.3650  28.3491
    29.5210  30.9912  32.4922

     occupation numbers 
     1.0000   1.0000   1.0000   1.0000   1.0000   1.0000   1.0000   1.0000
     1.0000   1.0000   1.0000   1.0000   1.0000   1.0000   1.0000   1.0000
     1.0000   1.0000   1.0000   1.0000   1.0000   0.6346   0.3405   0.0000
     0.0000   0.0000   0.0000   0.0000   0.0000   0.0000   0.0000   0.0000
     0.0000   0.0000   0.0000

          k =-0.8333 0.5000 0.1667 (   770 PWs)   bands (ev):

   -75.8647 -71.9596 -41.6279 -41.5635 -41.5223 -37.8368 -37.7939 -37.7734
    -5.3369  -5.1843   6.8287   6.9731   7.7954   8.1916   8.4455   8.5131
    10.5131  11.0457  11.3027  11.9908  12.1970  13.4758  13.9792  14.4459
    15.2628  15.4676  20.6331  22.4917  22.6683  24.3962  24.6905  24.9587
    29.2571  30.0834  32.5122

     occupation numbers 
     1.0000   1.0000   1.0000   1.0000   1.0000   1.0000   1.0000   1.0000
     1.0000   1.0000   1.0000   1.0000   1.0000   1.0000   1.0000   1.0000
     1.0000   1.0000   1.0000   1.0000   1.0000   0.8514   0.0128   0.0000
     0.0000   0.0000   0.0000   0.0000   0.0000   0.0000   0.0000   0.0000
     0.0000   0.0000   0.0000

          k =-0.5833 0.4167 0.0833 (   769 PWs)   bands (ev):

   -75.8650 -71.9596 -41.6305 -41.5600 -41.5219 -37.8332 -37.7935 -37.7764
    -5.3345  -5.1880   6.6443   7.4514   7.7779   8.1122   8.2982   8.4152
    10.5438  11.0563  11.3295  11.9705  12.1495  13.4594  13.9901  14.4444
    15.1383  15.6740  20.3737  22.2928  23.5426  23.9736  24.1655  25.6284
    28.7733  30.3726  33.3205

     occupation numbers 
     1.0000   1.0000   1.0000   1.0000   1.0000   1.0000   1.0000   1.0000
     1.0000   1.0000   1.0000   1.0000   1.0000   1.0000   1.0000   1.0000
     1.0000   1.0000   1.0000   1.0000   1.0000   0.8876   0.0109   0.0000
     0.0000   0.0000   0.0000   0.0000   0.0000   0.0000   0.0000   0.0000
     0.0000   0.0000   0.0000

          k =-0.3333 0.3333-0.0000 (   761 PWs)   bands (ev):

   -75.8634 -71.9587 -41.6253 -41.5399 -41.4966 -37.8111 -37.7759 -37.7645
    -5.7758  -5.1842   6.9351   7.4271   7.7820   8.2056   8.6476   9.1033
    10.5383  11.0663  11.3041  11.7695  12.2707  13.5717  13.6484  14.3000
    15.1697  15.4974  18.0445  22.4926  22.6665  24.6441  25.5055  28.2049
    29.2542  32.0579  32.4456

     occupation numbers 
     1.0000   1.0000   1.0000   1.0000   1.0000   1.0000   1.0000   1.0000
     1.0000   1.0000   1.0000   1.0000   1.0000   1.0000   1.0000   1.0000
     1.0000   1.0000   1.0000   1.0000   1.0000   0.6013   0.3958   0.0000
     0.0000   0.0000   0.0000   0.0000   0.0000   0.0000   0.0000   0.0000
     0.0000   0.0000   0.0000

          k = 0.3333 0.3333-0.3333 (   753 PWs)   bands (ev):

   -75.8580 -71.9535 -41.6073 -41.5407 -41.4718 -37.8146 -37.7559 -37.7434
    -5.5395  -5.2822   6.6231   7.1542   8.0614   8.2480   8.7223   9.1273
    10.3136  11.0245  11.0537  12.2809  12.3546  13.1902  14.0244  14.3533
    15.4586  15.5403  18.4818  20.9430  23.8179  24.2460  24.7009  29.7561
    29.8015  30.7261  31.3375

     occupation numbers 
     1.0000   1.0000   1.0000   1.0000   1.0000   1.0000   1.0000   1.0000
     1.0000   1.0000   1.0000   1.0000   1.0000   1.0000   1.0000   1.0000
     1.0000   1.0000   1.0000   1.0000   1.0000   1.0707   0.0064   0.0000
     0.0000   0.0000   0.0000   0.0000   0.0000   0.0000   0.0000   0.0000
     0.0000   0.0000   0.0000

          k =-0.9167 0.7500 0.0833 (   764 PWs)   bands (ev):

   -75.8627 -71.9573 -41.6151 -41.5550 -41.5154 -37.8283 -37.7866 -37.7630
    -5.2748  -5.2438   6.2574   7.3676   7.9763   8.1144   8.3343   8.8930
    10.5108  11.0128  11.0639  12.0971  12.2893  13.4925  14.0071  14.4380
    15.3039  15.6815  20.0407  21.2869  23.3487  23.7783  24.4381  26.9857
    29.6030  29.9897  32.0769

     occupation numbers 
     1.0000   1.0000   1.0000   1.0000   1.0000   1.0000   1.0000   1.0000
     1.0000   1.0000   1.0000   1.0000   1.0000   1.0000   1.0000   1.0000
     1.0000   1.0000   1.0000   1.0000   1.0000   0.8119   0.0084   0.0000
     0.0000   0.0000   0.0000   0.0000   0.0000   0.0000   0.0000   0.0000
     0.0000   0.0000   0.0000

          k =-0.6667 0.6667 0.0000 (   767 PWs)   bands (ev):

   -75.8641 -71.9587 -41.6163 -41.5527 -41.5447 -37.8241 -37.8185 -37.7634
    -5.1846  -5.1842   6.9724   7.0469   7.6723   7.8717   8.1924   8.4228
    10.5760  11.1364  11.1781  12.0270  12.2942  13.8552  13.9190  14.2633
    15.3626  15.5014  22.2870  22.4829  22.7044  23.2357  23.8051  24.6567
    29.2614  30.5860  32.5855

     occupation numbers 
     1.0000   1.0000   1.0000   1.0000   1.0000   1.0000   1.0000   1.0000
     1.0000   1.0000   1.0000   1.0000   1.0000   1.0000   1.0000   1.0000
     1.0000   1.0000   1.0000   1.0000   1.0000   0.0639   0.0294   0.0001
     0.0000   0.0000   0.0000   0.0000   0.0000   0.0000   0.0000   0.0000
     0.0000   0.0000   0.0000

          k =-0.5000-0.5000 0.5000 (   780 PWs)   bands (ev):

   -75.8688 -71.9633 -41.6453 -41.5903 -41.5270 -37.8624 -37.7947 -37.7908
    -5.3067  -5.2087   5.7395   7.2860   7.9364   7.9583   9.5313   9.5409
     9.7888  10.9691  11.0437  11.9808  12.1540  13.2704  14.1555  14.5294
    15.7013  15.8050  19.1901  20.3211  23.1291  23.7114  24.9931  28.8444
    28.8686  30.9986  31.0013

     occupation numbers 
     1.0000   1.0000   1.0000   1.0000   1.0000   1.0000   1.0000   1.0000
     1.0000   1.0000   1.0000   1.0000   1.0000   1.0000   1.0000   1.0000
     1.0000   1.0000   1.0000   1.0000   1.0000   1.0831   0.0007   0.0000
     0.0000   0.0000   0.0000   0.0000   0.0000   0.0000   0.0000   0.0000
     0.0000   0.0000   0.0000

          k = 0.0833 0.0833 0.0833 (   755 PWs)   bands (ev):

   -75.8627 -71.9588 -41.6429 -41.4802 -41.4802 -37.7910 -37.7484 -37.7484
    -6.3305  -5.2971   5.9315   7.9866   7.9866   9.8123  10.2371  10.2371
    10.5977  10.5977  10.6757  11.9291  11.9291  13.4147  13.4147  14.0136
    15.1216  15.5665  15.5665  19.0629  23.3561  28.2493  29.1200  29.1200
    31.0494  31.0494  32.0714

     occupation numbers 
     1.0000   1.0000   1.0000   1.0000   1.0000   1.0000   1.0000   1.0000
     1.0000   1.0000   1.0000   1.0000   1.0000   1.0000   1.0000   1.0000
     1.0000   1.0000   1.0000   1.0000   1.0000   0.9717   0.9717   0.0076
     0.0000   0.0000   0.0000   0.0000   0.0000   0.0000   0.0000   0.0000
     0.0000   0.0000   0.0000

          k = 0.3333 0.0000 0.0000 (   754 PWs)   bands (ev):

   -75.8616 -71.9573 -41.6316 -41.5030 -41.4772 -37.7803 -37.7726 -37.7468
    -6.0657  -5.3107   6.3766   7.9006   8.0414   8.4470   9.8007   9.8099
    10.3703  11.1458  11.1836  11.6463  11.8146  13.4361  13.6109  14.1029
    14.8120  15.6400  17.0420  20.1042  23.5878  26.3906  26.9031  30.1595
    30.5642  30.5899  31.6946

     occupation numbers 
     1.0000   1.0000   1.0000   1.0000   1.0000   1.0000   1.0000   1.0000
     1.0000   1.0000   1.0000   1.0000   1.0000   1.0000   1.0000   1.0000
     1.0000   1.0000   1.0000   1.0000   1.0000   0.9343   0.4934   0.0017
     0.0000   0.0000   0.0000   0.0000   0.0000   0.0000   0.0000   0.0000
     0.0000   0.0000   0.0000

          k =-0.9167 0.4167 0.4167 (   762 PWs)   bands (ev):

   -75.8618 -71.9570 -41.6283 -41.5553 -41.4797 -37.8271 -37.7764 -37.7506
    -5.5924  -5.2218   6.6073   7.0513   7.9613   8.0942   9.1797   9.4346
    10.1509  11.0449  11.3607  11.7319  12.0348  13.2692  13.9833  14.4085
    14.9270  15.5866  19.4201  21.3410  23.4037  24.7270  25.4295  26.7005
    30.2390  30.6287  30.9420

     occupation numbers 
     1.0000   1.0000   1.0000   1.0000   1.0000   1.0000   1.0000   1.0000
     1.0000   1.0000   1.0000   1.0000   1.0000   1.0000   1.0000   1.0000
     1.0000   1.0000   1.0000   1.0000   1.0000   1.0831   0.0121   0.0000
     0.0000   0.0000   0.0000   0.0000   0.0000   0.0000   0.0000   0.0000
     0.0000   0.0000   0.0000

          k =-0.6667 0.3333 0.3333 (   763 PWs)   bands (ev):

   -75.8620 -71.9570 -41.6236 -41.5677 -41.4901 -37.8419 -37.7722 -37.7608
    -5.2840  -5.2325   6.2825   7.1716   7.8345   8.1401   8.5451   9.1774
    10.1598  10.9935  11.2360  12.2012  12.3973  13.0856  14.1423  14.5364
    15.4609  15.4775  20.4118  20.9489  23.1280  23.9224  24.7031  26.5936
    29.5417  30.7210  31.3351

     occupation numbers 
     1.0000   1.0000   1.0000   1.0000   1.0000   1.0000   1.0000   1.0000
     1.0000   1.0000   1.0000   1.0000   1.0000   1.0000   1.0000   1.0000
     1.0000   1.0000   1.0000   1.0000   1.0000   1.0360   0.0008   0.0000
     0.0000   0.0000   0.0000   0.0000   0.0000   0.0000   0.0000   0.0000
     0.0000   0.0000   0.0000

          k =-0.4167 0.2500 0.2500 (   763 PWs)   bands (ev):

   -75.8634 -71.9585 -41.6310 -41.5526 -41.4910 -37.8252 -37.7784 -37.7610
    -5.6147  -5.2070   6.8892   7.2825   7.6713   8.2824   8.5397   9.0318
    10.3617  11.0378  11.1308  12.2696  12.4303  13.1171  14.0153  14.3669
    15.3455  15.4641  18.4742  21.8740  23.3147  24.1136  24.6073  29.2262
    29.8120  30.6366  31.7183

     occupation numbers 
     1.0000   1.0000   1.0000   1.0000   1.0000   1.0000   1.0000   1.0000
     1.0000   1.0000   1.0000   1.0000   1.0000   1.0000   1.0000   1.0000
     1.0000   1.0000   1.0000   1.0000   1.0000   1.0461   0.0074   0.0000
     0.0000   0.0000   0.0000   0.0000   0.0000   0.0000   0.0000   0.0000
     0.0000   0.0000   0.0000

          k = 0.2500 0.2500-0.0833 (   756 PWs)   bands (ev):

   -75.8626 -71.9583 -41.6384 -41.5048 -41.4814 -37.7868 -37.7738 -37.7507
    -5.9948  -5.3959   6.5623   7.8644   8.3009   8.4081   9.2626   9.4168
    10.5294  10.8482  11.0502  12.0155  12.4108  13.3039  13.6916  14.0954
    15.1829  15.3217  17.0064  19.8021  23.8820  26.1863  27.0414  29.7489
    29.7766  31.3883  33.0146

     occupation numbers 
     1.0000   1.0000   1.0000   1.0000   1.0000   1.0000   1.0000   1.0000
     1.0000   1.0000   1.0000   1.0000   1.0000   1.0000   1.0000   1.0000
     1.0000   1.0000   1.0000   1.0000   1.0000   1.0766   0.2947   0.0020
     0.0000   0.0000   0.0000   0.0000   0.0000   0.0000   0.0000   0.0000
     0.0000   0.0000   0.0000

          k =-1.0000 0.6667 0.3333 (   761 PWs)   bands (ev):

   -75.8622 -71.9574 -41.6268 -41.5257 -41.4982 -37.7975 -37.7752 -37.7677
    -5.6329  -5.3364   6.7896   7.1117   8.1798   8.4063   8.6682   9.2388
    10.5236  10.9734  11.1489  11.7959  12.2558  13.5654  13.6962  14.3350
    15.0118  15.3840  18.9263  20.6630  24.4534  24.8325  25.1364  27.9834
    30.0433  30.1531  32.1622

     occupation numbers 
     1.0000   1.0000   1.0000   1.0000   1.0000   1.0000   1.0000   1.0000
     1.0000   1.0000   1.0000   1.0000   1.0000   1.0000   1.0000   1.0000
     1.0000   1.0000   1.0000   1.0000   1.0000   0.6187   0.2847   0.0000
     0.0000   0.0000   0.0000   0.0000   0.0000   0.0000   0.0000   0.0000
     0.0000   0.0000   0.0000

          k =-0.7500 0.5833 0.2500 (   770 PWs)   bands (ev):

   -75.8647 -71.9595 -41.6300 -41.5639 -41.5200 -37.8376 -37.7899 -37.7760
    -5.3173  -5.2008   6.5395   6.9769   7.8462   8.2208   8.4435   8.8518
    10.4574  11.0292  11.1392  12.1489  12.2115  13.4987  13.9897  14.4423
    15.3465  15.4200  20.7030  21.3622  22.8932  24.1845  24.8971  25.5996
    29.6763  30.1211  31.9186

     occupation numbers 
     1.0000   1.0000   1.0000   1.0000   1.0000   1.0000   1.0000   1.0000
     1.0000   1.0000   1.0000   1.0000   1.0000   1.0000   1.0000   1.0000
     1.0000   1.0000   1.0000   1.0000   1.0000   0.7964   0.0110   0.0000
     0.0000   0.0000   0.0000   0.0000   0.0000   0.0000   0.0000   0.0000
     0.0000   0.0000   0.0000

          k =-0.5000 0.5000 0.1667 (   771 PWs)   bands (ev):

   -75.8658 -71.9605 -41.6300 -41.5656 -41.5274 -37.8403 -37.7974 -37.7746
    -5.3115  -5.2099   6.4110   7.5354   7.9535   8.0658   8.2881   8.5028
    10.5533  11.0443  11.1990  12.0928  12.1252  13.4643  14.0059  14.4398
    15.1636  15.7826  20.0915  21.7696  23.5900  23.7593  24.2484  26.4099
    28.9910  30.1777  32.9137

     occupation numbers 
     1.0000   1.0000   1.0000   1.0000   1.0000   1.0000   1.0000   1.0000
     1.0000   1.0000   1.0000   1.0000   1.0000   1.0000   1.0000   1.0000
     1.0000   1.0000   1.0000   1.0000   1.0000   0.8771   0.0086   0.0000
     0.0000   0.0000   0.0000   0.0000   0.0000   0.0000   0.0000   0.0000
     0.0000   0.0000   0.0000

          k =-0.5833-0.5833 0.7500 (   759 PWs)   bands (ev):

   -75.8603 -71.9556 -41.6229 -41.5410 -41.4819 -37.8152 -37.7698 -37.7526
    -5.4280  -5.3909   6.4113   7.0372   8.1234   8.2535   9.1706   9.3618
    10.1770  10.9876  11.0785  11.9869  12.1985  13.2992  14.0112  14.3523
    15.2792  15.6107  19.0265  20.2662  23.8324  24.6488  25.1088  28.3744
    29.8354  30.7873  30.9866

     occupation numbers 
     1.0000   1.0000   1.0000   1.0000   1.0000   1.0000   1.0000   1.0000
     1.0000   1.0000   1.0000   1.0000   1.0000   1.0000   1.0000   1.0000
     1.0000   1.0000   1.0000   1.0000   1.0000   1.0781   0.0079   0.0000
     0.0000   0.0000   0.0000   0.0000   0.0000   0.0000   0.0000   0.0000
     0.0000   0.0000   0.0000

          k =-0.3333-0.6667 0.6667 (   763 PWs)   bands (ev):

   -75.8620 -71.9569 -41.6147 -41.5537 -41.5136 -37.8269 -37.7848 -37.7626
    -5.2826  -5.2340   6.2894   7.1541   7.9068   8.1935   8.4084   9.0798
    10.4261  11.0172  11.0310  12.1533  12.3155  13.5104  14.0016  14.4387
    15.3841  15.5131  20.4311  20.9356  23.1385  23.9238  24.7022  26.5928
    29.5709  30.7145  31.3264

     occupation numbers 
     1.0000   1.0000   1.0000   1.0000   1.0000   1.0000   1.0000   1.0000
     1.0000   1.0000   1.0000   1.0000   1.0000   1.0000   1.0000   1.0000
     1.0000   1.0000   1.0000   1.0000   1.0000   0.7670   0.0092   0.0000
     0.0000   0.0000   0.0000   0.0000   0.0000   0.0000   0.0000   0.0000
     0.0000   0.0000   0.0000

          k =-0.0833-0.7500 0.5833 (   772 PWs)   bands (ev):

   -75.8660 -71.9606 -41.6343 -41.5524 -41.5496 -37.8285 -37.8214 -37.7766
    -5.1848  -5.1848   6.9924   7.0304   7.6933   7.8370   8.1963   8.4066
    10.5760  11.1377  11.1747  12.0202  12.2915  13.8559  13.9174  14.2630
    15.3665  15.4886  22.2720  22.5682  22.5978  23.1222  24.2408  24.2555
    29.7560  29.9127  33.3045

     occupation numbers 
     1.0000   1.0000   1.0000   1.0000   1.0000   1.0000   1.0000   1.0000
     1.0000   1.0000   1.0000   1.0000   1.0000   1.0000   1.0000   1.0000
     1.0000   1.0000   1.0000   1.0000   1.0000   0.0634   0.0300   0.0001
     0.0000   0.0000   0.0000   0.0000   0.0000   0.0000   0.0000   0.0000
     0.0000   0.0000   0.0000

          k =-0.4167-0.4167 0.5833 (   762 PWs)   bands (ev):

   -75.8611 -71.9561 -41.6151 -41.5702 -41.4906 -37.8437 -37.7636 -37.7614
    -5.2998  -5.2148   5.8854   7.2768   7.9329   8.0235   9.1121   9.4169
    10.0133  10.9797  11.1165  12.1245  12.1670  13.2106  14.1527  14.5326
    15.6336  15.6827  19.6059  20.5380  23.1512  23.7970  24.8813  28.0429
    29.0898  31.0296  31.1230

     occupation numbers 
     1.0000   1.0000   1.0000   1.0000   1.0000   1.0000   1.0000   1.0000
     1.0000   1.0000   1.0000   1.0000   1.0000   1.0000   1.0000   1.0000
     1.0000   1.0000   1.0000   1.0000   1.0000   1.0763   0.0007   0.0000
     0.0000   0.0000   0.0000   0.0000   0.0000   0.0000   0.0000   0.0000
     0.0000   0.0000   0.0000

          k = 0.1667 0.1667 0.1667 (   739 PWs)   bands (ev):

   -75.8564 -71.9525 -41.6201 -41.4566 -41.4566 -37.7714 -37.7271 -37.7271
    -6.1314  -5.5387   6.5792   8.1923   8.1923   8.7569   9.7109   9.7109
    10.6236  10.6236  10.6990  12.4318  12.4318  13.3737  13.3737  13.8895
    15.4251  15.4251  16.2393  18.5098  24.1365  26.8060  29.7841  29.7841
    30.9299  30.9299  33.4343

     occupation numbers 
     1.0000   1.0000   1.0000   1.0000   1.0000   1.0000   1.0000   1.0000
     1.0000   1.0000   1.0000   1.0000   1.0000   1.0000   1.0000   1.0000
     1.0000   1.0000   1.0000   1.0000   1.0000   1.0275   1.0275   0.0426
     0.0000   0.0000   0.0000   0.0000   0.0000   0.0000   0.0000   0.0000
     0.0000   0.0000   0.0000

          k =-1.0833 0.5833 0.5833 (   754 PWs)   bands (ev):

   -75.8611 -71.9570 -41.6315 -41.5066 -41.4688 -37.7814 -37.7757 -37.7391
    -5.8760  -5.5266   6.7872   7.5502   8.1636   8.6025   9.3355   9.5724
    10.4378  10.9926  11.2487  11.7211  11.9469  13.4407  13.6321  14.1044
    14.7195  15.5743  17.9728  19.1669  24.5780  26.1422  26.9972  29.3823
    30.3835  31.0924  31.4008

     occupation numbers 
     1.0000   1.0000   1.0000   1.0000   1.0000   1.0000   1.0000   1.0000
     1.0000   1.0000   1.0000   1.0000   1.0000   1.0000   1.0000   1.0000
     1.0000   1.0000   1.0000   1.0000   1.0000   0.9255   0.4372   0.0017
     0.0000   0.0000   0.0000   0.0000   0.0000   0.0000   0.0000   0.0000
     0.0000   0.0000   0.0000

          k =-0.8333 0.5000 0.5000 (   762 PWs)   bands (ev):

   -75.8617 -71.9568 -41.6275 -41.5500 -41.4842 -37.8225 -37.7750 -37.7545
    -5.5061  -5.3112   6.3974   6.9861   8.0693   8.1834   9.5262   9.5302
    10.0108  11.0807  11.1355  11.8586  11.9007  13.3367  13.9939  14.3835
    14.9871  15.6749  19.7894  20.1189  23.5855  25.4167  25.6235  26.4144
    30.0894  30.6005  30.6709

     occupation numbers 
     1.0000   1.0000   1.0000   1.0000   1.0000   1.0000   1.0000   1.0000
     1.0000   1.0000   1.0000   1.0000   1.0000   1.0000   1.0000   1.0000
     1.0000   1.0000   1.0000   1.0000   1.0000   1.0602   0.0103   0.0000
     0.0000   0.0000   0.0000   0.0000   0.0000   0.0000   0.0000   0.0000
     0.0000   0.0000   0.0000

          k =-0.6667-0.6667 1.0000 (   752 PWs)   bands (ev):

   -75.8608 -71.9566 -41.6237 -41.4988 -41.4756 -37.7814 -37.7618 -37.7454
    -5.7761  -5.6321   7.0306   7.3846   8.3175   8.6547   9.0959   9.2785
    10.5043  10.8862  11.2188  11.7796  12.2773  13.3705  13.6754  14.0861
    14.9208  15.4138  18.0457  18.9363  25.0058  25.5589  27.9820  28.1993
    30.0869  32.0568  32.1789

     occupation numbers 
     1.0000   1.0000   1.0000   1.0000   1.0000   1.0000   1.0000   1.0000
     1.0000   1.0000   1.0000   1.0000   1.0000   1.0000   1.0000   1.0000
     1.0000   1.0000   1.0000   1.0000   1.0000   1.0310   0.3308   0.0023
     0.0000   0.0000   0.0000   0.0000   0.0000   0.0000   0.0000   0.0000
     0.0000   0.0000   0.0000

          k =-0.4167-0.7500 0.9167 (   762 PWs)   bands (ev):

   -75.8622 -71.9574 -41.6190 -41.5264 -41.5055 -37.7978 -37.7770 -37.7662
    -5.4883  -5.4835   6.7780   7.0015   8.2743   8.5818   8.5897   9.2328
    10.5854  10.8480  11.1935  11.7060  12.2682  13.5733  13.7036  14.3496
    14.9784  15.3573  19.6107  19.8126  24.6254  24.8357  26.3270  26.4971
    30.2602  30.4510  31.9177

     occupation numbers 
     1.0000   1.0000   1.0000   1.0000   1.0000   1.0000   1.0000   1.0000
     1.0000   1.0000   1.0000   1.0000   1.0000   1.0000   1.0000   1.0000
     1.0000   1.0000   1.0000   1.0000   1.0000   0.5968   0.2692   0.0000
     0.0000   0.0000   0.0000   0.0000   0.0000   0.0000   0.0000   0.0000
     0.0000   0.0000   0.0000

          k =-0.2500-0.2500-0.2500 (   748 PWs)   bands (ev):

   -75.8606 -71.9567 -41.6434 -41.4666 -41.4666 -37.7931 -37.7364 -37.7364
    -5.8591  -5.8336   7.3202   7.7838   8.3147   8.3147   9.4488   9.4488
    10.6370  10.6370  10.6908  12.6355  12.6355  13.3526  13.3526  13.8286
    15.3290  15.3290  17.2649  17.6001  25.0700  25.6460  30.4153  30.4153
    30.5244  30.5244  34.0061

     occupation numbers 
     1.0000   1.0000   1.0000   1.0000   1.0000   1.0000   1.0000   1.0000
     1.0000   1.0000   1.0000   1.0000   1.0000   1.0000   1.0000   1.0000
     1.0000   1.0000   1.0000   1.0000   1.0000   1.0481   1.0481   0.0858
     0.0000   0.0000   0.0000   0.0000   0.0000   0.0000   0.0000   0.0000
     0.0000   0.0000   0.0000

     the Fermi energy is    13.6464 ev
     (compare with:    13.7043 eV, computed in scf)

     Writing output data file ./tmp/FeO.save/
 
     init_run     :      1.57s CPU      1.66s WALL (       1 calls)
     electrons    :     39.83s CPU     40.01s WALL (       1 calls)

     Called by init_run:
     wfcinit      :      0.08s CPU      0.08s WALL (       1 calls)
     wfcinit:atom :      0.01s CPU      0.01s WALL (      64 calls)
     wfcinit:wfcr :      1.80s CPU      1.84s WALL (      64 calls)
     potinit      :      0.75s CPU      0.77s WALL (       1 calls)
     hinit0       :      0.68s CPU      0.71s WALL (       1 calls)

     Called by electrons:
     c_bands      :     39.82s CPU     40.01s WALL (       1 calls)
     v_of_rho     :      0.10s CPU      0.11s WALL (       1 calls)
     v_h          :      0.00s CPU      0.00s WALL (       1 calls)
     v_xc         :      0.10s CPU      0.11s WALL (       1 calls)
     newd         :      0.05s CPU      0.09s WALL (       1 calls)
     PAW_pot      :      0.64s CPU      0.66s WALL (       1 calls)

     Called by c_bands:
     init_us_2    :      0.04s CPU      0.05s WALL (     128 calls)
     cegterg      :     37.85s CPU     37.99s WALL (     129 calls)

     Called by sum_band:

     Called by *egterg:
     cdiaghg      :      2.64s CPU      2.66s WALL (    1981 calls)
     cegterg:over :      0.85s CPU      0.86s WALL (    1917 calls)
     cegterg:upda :      0.45s CPU      0.45s WALL (    1917 calls)
     cegterg:last :      1.13s CPU      1.13s WALL (    1131 calls)
     h_psi        :     33.75s CPU     33.90s WALL (    2110 calls)
     s_psi        :      0.37s CPU      0.37s WALL (    2174 calls)
     g_psi        :      0.18s CPU      0.18s WALL (    1917 calls)

     Called by h_psi:
     h_psi:calbec :      0.37s CPU      0.37s WALL (    2110 calls)
     vloc_psi     :     32.75s CPU     32.90s WALL (    2110 calls)
     add_vuspsi   :      0.35s CPU      0.36s WALL (    2110 calls)
     vhpsi        :      0.22s CPU      0.22s WALL (    2110 calls)

     General routines
     calbec       :      0.48s CPU      0.49s WALL (    4284 calls)
     fft          :      0.02s CPU      0.04s WALL (      23 calls)
     ffts         :      0.00s CPU      0.00s WALL (       2 calls)
     fftw         :     29.26s CPU     29.40s WALL (   85766 calls)
     interpolate  :      0.00s CPU      0.00s WALL (       2 calls)
     davcio       :      0.01s CPU      0.02s WALL (     256 calls)
 
     Parallel routines

     Hubbard U routines
     vhpsi        :      0.22s CPU      0.22s WALL (    2110 calls)

     PAW routines
     PAW_pot      :      0.64s CPU      0.66s WALL (       1 calls)
 
     PWSCF        :     41.65s CPU     41.97s WALL

 
   This run was terminated on:  13: 1:51  16Apr2021            

=------------------------------------------------------------------------------=
   JOB DONE.
=------------------------------------------------------------------------------=
