
     Program PHONON v.6.4.1 starts on 29Aug2019 at 17:45:54 

     This program is part of the open-source Quantum ESPRESSO suite
     for quantum simulation of materials; please cite
         "P. Giannozzi et al., J. Phys.:Condens. Matter 21 395502 (2009);
         "P. Giannozzi et al., J. Phys.:Condens. Matter 29 465901 (2017);
          URL http://www.quantum-espresso.org", 
     in publications or presentations arising from this work. More details at
     http://www.quantum-espresso.org/quote

     Parallel version (MPI), running on     8 processors

     MPI processes distributed on     1 nodes
     R & G space division:  proc/nbgrp/npool/nimage =       8

     Reading data from directory:
     ./out/Si.save/

     IMPORTANT: XC functional enforced from input :
     Exchange-correlation      = PZ ( 1  1  0  0 0 0)
     Any further DFT definition will be discarded
     Please, verify this is what you really want

 
     Parallelization info
     --------------------
     sticks:   dense  smooth     PW     G-vecs:    dense   smooth      PW
     Min          29      29      9                  284      284      51
     Max          30      30     10                  285      285      52
     Sum         235     235     73                 2277     2277     411
 

     Calculation of q =    0.0000000   0.0000000   0.0000000

     Phonons at Gamma                                                           

     bravais-lattice index     =            2
     lattice parameter (alat)  =      10.2000  a.u.
     unit-cell volume          =     265.3020 (a.u.)^3
     number of atoms/cell      =            2
     number of atomic types    =            1
     kinetic-energy cut-off    =      16.0000  Ry
     charge density cut-off    =      64.0000  Ry
     convergence threshold     =      1.0E-14
     beta                      =       0.7000
     number of iterations used =            4
     Exchange-correlation      = PZ ( 1  1  0  0 0 0)


     celldm(1)=   10.20000  celldm(2)=    0.00000  celldm(3)=    0.00000
     celldm(4)=    0.00000  celldm(5)=    0.00000  celldm(6)=    0.00000

     crystal axes: (cart. coord. in units of alat)
               a(1) = ( -0.5000  0.0000  0.5000 )  
               a(2) = (  0.0000  0.5000  0.5000 )  
               a(3) = ( -0.5000  0.5000  0.0000 )  

     reciprocal axes: (cart. coord. in units 2 pi/alat)
               b(1) = ( -1.0000 -1.0000  1.0000 )  
               b(2) = (  1.0000  1.0000  1.0000 )  
               b(3) = ( -1.0000  1.0000 -1.0000 )  


     Atoms inside the unit cell: 

     Cartesian axes

     site n.  atom      mass           positions (alat units)
        1     Si  28.0855   tau(    1) = (    0.00000    0.00000    0.00000  )
        2     Si  28.0855   tau(    2) = (    0.25000    0.25000    0.25000  )

     Computing dynamical matrix for 
                    q = (   0.0000000   0.0000000   0.0000000 )
 
     49 Sym.Ops. (with q -> -q+G )


     G cutoff =  168.6633  (    285 G-vectors)     FFT grid: ( 20, 20, 20)
     number of k points=    10
                       cart. coord. in units 2pi/alat
        k(    1) = (   0.1250000   0.1250000   0.1250000), wk =   0.0625000
        k(    2) = (   0.1250000   0.1250000   0.3750000), wk =   0.1875000
        k(    3) = (   0.1250000   0.1250000   0.6250000), wk =   0.1875000
        k(    4) = (   0.1250000   0.1250000   0.8750000), wk =   0.1875000
        k(    5) = (   0.1250000   0.3750000   0.3750000), wk =   0.1875000
        k(    6) = (   0.1250000   0.3750000   0.6250000), wk =   0.3750000
        k(    7) = (   0.1250000   0.3750000   0.8750000), wk =   0.3750000
        k(    8) = (   0.1250000   0.6250000   0.6250000), wk =   0.1875000
        k(    9) = (   0.3750000   0.3750000   0.3750000), wk =   0.0625000
        k(   10) = (   0.3750000   0.3750000   0.6250000), wk =   0.1875000

     PseudoPot. # 1 for Si read from file:
     ./Si.vbc.UPF
     MD5 check sum: bcd8ae23180a2f07cc8655fe7dcd9644
     Pseudo is Norm-conserving, Zval =  4.0
     Generated by new atomic code, or converted to UPF format
     Using radial grid of  431 points,  2 beta functions with: 
                l(1) =   0
                l(2) =   1

     Mode symmetry, O_h (m-3m)  point group:


     Atomic displacements:
     There are   2 irreducible representations

     Representation     1      3 modes -T_2g G_25' G_5+  To be done

     Representation     2      3 modes -T_1u G_15  G_4-  To be done



     Alpha used in Ewald sum =   0.7000
     PHONON       :      0.18s CPU      0.39s WALL



     Representation #  1 modes #   1  2  3

     Self-consistent Calculation

      iter #   1 total cpu time :     0.7 secs   av.it.:   4.9
      thresh= 1.000E-02 alpha_mix =  0.700 |ddv_scf|^2 =  1.308E-07

      iter #   2 total cpu time :     1.1 secs   av.it.:   9.7
      thresh= 3.617E-05 alpha_mix =  0.700 |ddv_scf|^2 =  2.202E-09

      iter #   3 total cpu time :     1.4 secs   av.it.:   9.6
      thresh= 4.692E-06 alpha_mix =  0.700 |ddv_scf|^2 =  1.931E-11

      iter #   4 total cpu time :     1.8 secs   av.it.:   9.1
      thresh= 4.395E-07 alpha_mix =  0.700 |ddv_scf|^2 =  2.310E-14

      iter #   5 total cpu time :     2.1 secs   av.it.:   9.6
      thresh= 1.520E-08 alpha_mix =  0.700 |ddv_scf|^2 =  2.441E-16

     End of self-consistent calculation

     Convergence has been achieved 


     Representation #  2 modes #   4  5  6

     Self-consistent Calculation

      iter #   1 total cpu time :     2.4 secs   av.it.:   5.0
      thresh= 1.000E-02 alpha_mix =  0.700 |ddv_scf|^2 =  9.202E-08

      iter #   2 total cpu time :     2.8 secs   av.it.:   9.7
      thresh= 3.033E-05 alpha_mix =  0.700 |ddv_scf|^2 =  3.236E-09

      iter #   3 total cpu time :     3.2 secs   av.it.:   9.6
      thresh= 5.689E-06 alpha_mix =  0.700 |ddv_scf|^2 =  2.696E-11

      iter #   4 total cpu time :     3.6 secs   av.it.:   9.5
      thresh= 5.192E-07 alpha_mix =  0.700 |ddv_scf|^2 =  6.432E-14

      iter #   5 total cpu time :     3.9 secs   av.it.:   9.9
      thresh= 2.536E-08 alpha_mix =  0.700 |ddv_scf|^2 =  9.514E-16

     End of self-consistent calculation

     Convergence has been achieved 
 
     Number of q in the star =    1
     List of q in the star:
          1   0.000000000   0.000000000   0.000000000

     Diagonalizing the dynamical matrix

     q = (    0.000000000   0.000000000   0.000000000 ) 

 **************************************************************************
     freq (    1) =       0.069949 [THz] =       2.333248 [cm-1]
     freq (    2) =       0.069949 [THz] =       2.333248 [cm-1]
     freq (    3) =       0.069949 [THz] =       2.333248 [cm-1]
     freq (    4) =      15.474501 [THz] =     516.173789 [cm-1]
     freq (    5) =      15.474501 [THz] =     516.173789 [cm-1]
     freq (    6) =      15.474501 [THz] =     516.173789 [cm-1]
 **************************************************************************

     Mode symmetry, O_h (m-3m)  point group:

     freq (  1 -  3) =          2.3  [cm-1]   --> T_1u G_15  G_4- I  
     freq (  4 -  6) =        516.2  [cm-1]   --> T_2g G_25' G_5+ R  
 
     PHONON       :      2.86s CPU      4.06s WALL

     INITIALIZATION: 
     phq_setup    :      0.01s CPU      0.02s WALL (       1 calls)
     phq_init     :      0.01s CPU      0.02s WALL (       1 calls)
 
     phq_init     :      0.01s CPU      0.02s WALL (       1 calls)
     init_vloc    :      0.00s CPU      0.00s WALL (       1 calls)
     init_us_1    :      0.00s CPU      0.00s WALL (       1 calls)
 
     DYNAMICAL MATRIX:
     dynmat0      :      0.01s CPU      0.02s WALL (       1 calls)
     phqscf       :      2.67s CPU      3.61s WALL (       1 calls)
     dynmatrix    :      0.00s CPU      0.01s WALL (       1 calls)
 
     phqscf       :      2.67s CPU      3.61s WALL (       1 calls)
     solve_linter :      2.65s CPU      3.54s WALL (       2 calls)
     drhodv       :      0.01s CPU      0.02s WALL (       2 calls)
 
     dynmat0      :      0.01s CPU      0.02s WALL (       1 calls)
     dynmat_us    :      0.00s CPU      0.00s WALL (       1 calls)
     d2ionq       :      0.00s CPU      0.00s WALL (       1 calls)
 
     dynmat_us    :      0.00s CPU      0.00s WALL (       1 calls)
 
     phqscf       :      2.67s CPU      3.61s WALL (       1 calls)
     solve_linter :      2.65s CPU      3.54s WALL (       2 calls)
 
     solve_linter :      2.65s CPU      3.54s WALL (       2 calls)
     dvqpsi_us    :      0.04s CPU      0.04s WALL (      60 calls)
     ortho        :      0.01s CPU      0.02s WALL (     300 calls)
     cgsolve      :      1.62s CPU      2.05s WALL (     300 calls)
     incdrhoscf   :      0.13s CPU      0.16s WALL (     300 calls)
     vpsifft      :      0.10s CPU      0.13s WALL (     240 calls)
     dv_of_drho   :      0.01s CPU      0.01s WALL (      30 calls)
     mix_pot      :      0.01s CPU      0.17s WALL (      10 calls)
     psymdvscf    :      0.68s CPU      0.68s WALL (      10 calls)
 
     dvqpsi_us    :      0.04s CPU      0.04s WALL (      60 calls)
     dvqpsi_us_on :      0.00s CPU      0.00s WALL (      60 calls)
 
     cgsolve      :      1.62s CPU      2.05s WALL (     300 calls)
     ch_psi       :      1.48s CPU      1.87s WALL (    2928 calls)
 
     ch_psi       :      1.48s CPU      1.87s WALL (    2928 calls)
     h_psi        :      1.25s CPU      1.58s WALL (    2928 calls)
     last         :      0.18s CPU      0.23s WALL (    2928 calls)
 
     h_psi        :      1.25s CPU      1.58s WALL (    2928 calls)
     add_vuspsi   :      0.03s CPU      0.04s WALL (    2928 calls)
 
     incdrhoscf   :      0.13s CPU      0.16s WALL (     300 calls)
 
 
      General routines
     calbec       :      0.18s CPU      0.23s WALL (    6196 calls)
     fft          :      0.02s CPU      0.03s WALL (      95 calls)
     ffts         :      0.01s CPU      0.01s WALL (      72 calls)
     fftw         :      1.21s CPU      1.54s WALL (   26460 calls)
     davcio       :      0.01s CPU      0.02s WALL (    1082 calls)
     write_rec    :      0.02s CPU      0.25s WALL (      12 calls)
 
 
     PHONON       :      2.86s CPU      4.06s WALL

 
   This run was terminated on:  17:45:58  29Aug2019            

=------------------------------------------------------------------------------=
   JOB DONE.
=------------------------------------------------------------------------------=
