
     Program PWSCF v.6.7GPU starts on 19Apr2021 at  0:19:25 

     This program is part of the open-source Quantum ESPRESSO suite
     for quantum simulation of materials; please cite
         "P. Giannozzi et al., J. Phys.:Condens. Matter 21 395502 (2009);
         "P. Giannozzi et al., J. Phys.:Condens. Matter 29 465901 (2017);
         "P. Giannozzi et al., J. Chem. Phys. 152 154105 (2020);
          URL http://www.quantum-espresso.org", 
     in publications or presentations arising from this work. More details at
     http://www.quantum-espresso.org/quote

     Parallel version (MPI & OpenMP), running on       2 processor cores
     Number of MPI processes:                 2
     Threads/MPI process:                     1

     MPI processes distributed on     1 nodes
     K-points division:     npool     =       2
     Reading input from fe.scf.5.7.in

     Current dimensions of program PWSCF are:
     Max number of different atomic species (ntypx) = 10
     Max number of k-points (npk) =  40000
     Max angular momentum in pseudopotentials (lmaxx) =  3

     Subspace diagonalization in iterative solution of the eigenvalue problem:
     a serial algorithm will be used


     G-vector sticks info
     --------------------
     sticks:   dense  smooth     PW     G-vecs:    dense   smooth      PW
     Sum        1547     523    165                38823     7395    1289

     Using Slab Decomposition



     bravais-lattice index     =            3
     lattice parameter (alat)  =       5.7000  a.u.
     unit-cell volume          =      92.5965 (a.u.)^3
     number of atoms/cell      =            1
     number of atomic types    =            1
     number of electrons       =        16.00
     number of Kohn-Sham states=           12
     kinetic-energy cutoff     =      70.0000  Ry
     charge density cutoff     =     850.0000  Ry
     scf convergence threshold =      1.0E-08
     mixing beta               =       0.7000
     number of iterations used =            8  plain     mixing
     Exchange-correlation= PBE
                           (   1   4   3   4   0   0   0)

     celldm(1)=   5.700000  celldm(2)=   0.000000  celldm(3)=   0.000000
     celldm(4)=   0.000000  celldm(5)=   0.000000  celldm(6)=   0.000000

     crystal axes: (cart. coord. in units of alat)
               a(1) = (   0.500000   0.500000   0.500000 )  
               a(2) = (  -0.500000   0.500000   0.500000 )  
               a(3) = (  -0.500000  -0.500000   0.500000 )  

     reciprocal axes: (cart. coord. in units 2 pi/alat)
               b(1) = (  1.000000  0.000000  1.000000 )  
               b(2) = ( -1.000000  1.000000  0.000000 )  
               b(3) = (  0.000000 -1.000000  1.000000 )  


     PseudoPot. # 1 for Fe read from file:
     /home/pietro/repositories/materials-for-max-qe2021-online-school/pseudo/Fe.pbe-spn-rrkjus_psl.0.2.1.UPF
     MD5 check sum: f9af58635850a145d9bd408d58feeb93
     Pseudo is Ultrasoft + core correction, Zval = 16.0
     Generated using "atomic" code by A. Dal Corso  v.5.0.2 svn rev. 9415
     Using radial grid of 1191 points,  6 beta functions with: 
                l(1) =   0
                l(2) =   0
                l(3) =   1
                l(4) =   1
                l(5) =   2
                l(6) =   2
     Q(r) pseudized with 0 coefficients 


     atomic species   valence    mass     pseudopotential
        Fe            16.00    55.84500     Fe( 1.00)

     Starting magnetic structure 
     atomic species   magnetization
        Fe           0.700

     48 Sym. Ops., with inversion, found



   Cartesian axes

     site n.     atom                  positions (alat units)
         1           Fe  tau(   1) = (   0.0000000   0.0000000   0.0000000  )

     number of k points=    44  Marzari-Vanderbilt smearing, width (Ry)=  0.0200
                       cart. coord. in units 2pi/alat
        k(    1) = (   0.0000000   0.0000000   0.1000000), wk =   0.0060000
        k(    2) = (   0.0000000  -0.1000000   0.2000000), wk =   0.0240000
        k(    3) = (   0.0000000  -0.2000000   0.3000000), wk =   0.0240000
        k(    4) = (   0.0000000  -0.3000000   0.4000000), wk =   0.0240000
        k(    5) = (   0.0000000  -0.4000000   0.5000000), wk =   0.0240000
        k(    6) = (  -0.1000000   0.1000000   0.1000000), wk =   0.0080000
        k(    7) = (  -0.1000000  -0.1000000   0.3000000), wk =   0.0240000
        k(    8) = (  -0.1000000  -0.2000000   0.4000000), wk =   0.0480000
        k(    9) = (  -0.1000000  -0.3000000   0.5000000), wk =   0.0480000
        k(   10) = (  -0.1000000   0.6000000  -0.4000000), wk =   0.0240000
        k(   11) = (  -0.2000000   0.2000000   0.1000000), wk =   0.0240000
        k(   12) = (  -0.2000000  -0.2000000   0.5000000), wk =   0.0240000
        k(   13) = (  -0.2000000   0.7000000  -0.4000000), wk =   0.0480000
        k(   14) = (  -0.3000000   0.3000000   0.1000000), wk =   0.0240000
        k(   15) = (  -0.3000000   0.2000000   0.2000000), wk =   0.0240000
        k(   16) = (  -0.3000000   0.7000000  -0.3000000), wk =   0.0080000
        k(   17) = (  -0.4000000   0.4000000   0.1000000), wk =   0.0240000
        k(   18) = (  -0.4000000   0.3000000   0.2000000), wk =   0.0480000
        k(   19) = (   0.5000000  -0.5000000   0.1000000), wk =   0.0120000
        k(   20) = (   0.5000000  -0.6000000   0.2000000), wk =   0.0480000
        k(   21) = (   0.5000000  -0.7000000   0.3000000), wk =   0.0240000
        k(   22) = (   0.4000000  -0.6000000   0.3000000), wk =   0.0240000
        k(   23) = (   0.0000000   0.0000000   0.3000000), wk =   0.0060000
        k(   24) = (   0.0000000  -0.1000000   0.4000000), wk =   0.0240000
        k(   25) = (   0.0000000  -0.2000000   0.5000000), wk =   0.0240000
        k(   26) = (   0.0000000  -0.3000000   0.6000000), wk =   0.0240000
        k(   27) = (  -0.1000000  -0.1000000   0.5000000), wk =   0.0240000
        k(   28) = (  -0.1000000  -0.2000000   0.6000000), wk =   0.0480000
        k(   29) = (  -0.1000000   0.7000000  -0.3000000), wk =   0.0240000
        k(   30) = (  -0.2000000   0.8000000  -0.3000000), wk =   0.0240000
        k(   31) = (  -0.3000000   0.3000000   0.3000000), wk =   0.0080000
        k(   32) = (   0.6000000  -0.6000000   0.3000000), wk =   0.0240000
        k(   33) = (   0.5000000  -0.5000000   0.3000000), wk =   0.0120000
        k(   34) = (   0.5000000  -0.6000000   0.4000000), wk =   0.0240000
        k(   35) = (   0.0000000   0.0000000   0.5000000), wk =   0.0060000
        k(   36) = (   0.0000000  -0.1000000   0.6000000), wk =   0.0240000
        k(   37) = (   0.0000000  -0.2000000   0.7000000), wk =   0.0240000
        k(   38) = (  -0.1000000  -0.1000000   0.7000000), wk =   0.0240000
        k(   39) = (  -0.1000000   0.8000000  -0.2000000), wk =   0.0240000
        k(   40) = (   0.5000000  -0.5000000   0.5000000), wk =   0.0020000
        k(   41) = (   0.0000000   0.0000000   0.7000000), wk =   0.0060000
        k(   42) = (   0.0000000  -0.1000000   0.8000000), wk =   0.0240000
        k(   43) = (  -0.1000000   0.9000000  -0.1000000), wk =   0.0080000
        k(   44) = (   0.0000000   0.0000000   0.9000000), wk =   0.0060000

     Dense  grid:    38823 G-vectors     FFT dimensions: (  45,  45,  45)

     Smooth grid:     7395 G-vectors     FFT dimensions: (  27,  27,  27)

     Estimated max dynamical RAM per process >     103.90 MB

     Estimated total dynamical RAM >     188.84 MB

     Check: negative core charge=   -0.000009
     Generating pointlists ...
     new r_m :   0.3572 (alat units)  2.0362 (a.u.) for type    1

     Initial potential from superposition of free atoms

     starting charge   15.99956, renormalised to   16.00000
     Starting wfcs are   13 randomized atomic wfcs

     total cpu time spent up to now is        1.0 secs

     Self-consistent Calculation

     iteration #  1     ecut=    70.00 Ry     beta= 0.70
     Davidson diagonalization with overlap
     ethr =  1.00E-02,  avg # of iterations =  2.8

     negative rho (up, down):  0.000E+00 8.198E-05

     total cpu time spent up to now is        2.1 secs

     total energy              =    -254.07165048 Ry
     estimated scf accuracy    <       1.43038786 Ry

     total magnetization       =     4.06 Bohr mag/cell
     absolute magnetization    =     4.09 Bohr mag/cell

     iteration #  2     ecut=    70.00 Ry     beta= 0.70
     Davidson diagonalization with overlap
     ethr =  8.94E-03,  avg # of iterations =  1.3

     negative rho (up, down):  0.000E+00 8.673E-05

     total cpu time spent up to now is        3.1 secs

     total energy              =    -254.22788284 Ry
     estimated scf accuracy    <       0.41585584 Ry

     total magnetization       =     3.11 Bohr mag/cell
     absolute magnetization    =     3.30 Bohr mag/cell

     iteration #  3     ecut=    70.00 Ry     beta= 0.70
     Davidson diagonalization with overlap
     ethr =  2.60E-03,  avg # of iterations =  2.1

     negative rho (up, down):  0.000E+00 9.765E-05

     total cpu time spent up to now is        4.1 secs

     total energy              =    -254.27000988 Ry
     estimated scf accuracy    <       0.52977361 Ry

     total magnetization       =     2.91 Bohr mag/cell
     absolute magnetization    =     3.07 Bohr mag/cell

     iteration #  4     ecut=    70.00 Ry     beta= 0.70
     Davidson diagonalization with overlap
     ethr =  2.60E-03,  avg # of iterations =  2.0

     negative rho (up, down):  0.000E+00 7.981E-05

     total cpu time spent up to now is        5.1 secs

     total energy              =    -254.35569195 Ry
     estimated scf accuracy    <       0.00087876 Ry

     total magnetization       =     2.62 Bohr mag/cell
     absolute magnetization    =     2.84 Bohr mag/cell

     iteration #  5     ecut=    70.00 Ry     beta= 0.70
     Davidson diagonalization with overlap
     ethr =  5.49E-06,  avg # of iterations =  7.0

     negative rho (up, down):  0.000E+00 7.890E-05

     total cpu time spent up to now is        6.8 secs

     total energy              =    -254.35742097 Ry
     estimated scf accuracy    <       0.00066893 Ry

     total magnetization       =     2.63 Bohr mag/cell
     absolute magnetization    =     2.83 Bohr mag/cell

     iteration #  6     ecut=    70.00 Ry     beta= 0.70
     Davidson diagonalization with overlap
     ethr =  4.18E-06,  avg # of iterations =  1.4

     negative rho (up, down):  0.000E+00 7.366E-05

     total cpu time spent up to now is        7.7 secs

     total energy              =    -254.35734812 Ry
     estimated scf accuracy    <       0.00029332 Ry

     total magnetization       =     2.63 Bohr mag/cell
     absolute magnetization    =     2.83 Bohr mag/cell

     iteration #  7     ecut=    70.00 Ry     beta= 0.70
     Davidson diagonalization with overlap
     ethr =  1.83E-06,  avg # of iterations =  1.8

     negative rho (up, down):  0.000E+00 7.397E-05

     total cpu time spent up to now is        8.8 secs

     total energy              =    -254.35740201 Ry
     estimated scf accuracy    <       0.00000278 Ry

     total magnetization       =     2.63 Bohr mag/cell
     absolute magnetization    =     2.83 Bohr mag/cell

     iteration #  8     ecut=    70.00 Ry     beta= 0.70
     Davidson diagonalization with overlap
     ethr =  1.74E-08,  avg # of iterations =  4.9

     negative rho (up, down):  0.000E+00 7.436E-05

     total cpu time spent up to now is       10.1 secs

     total energy              =    -254.35740399 Ry
     estimated scf accuracy    <       0.00000388 Ry

     total magnetization       =     2.63 Bohr mag/cell
     absolute magnetization    =     2.83 Bohr mag/cell

     iteration #  9     ecut=    70.00 Ry     beta= 0.70
     Davidson diagonalization with overlap
     ethr =  1.74E-08,  avg # of iterations =  2.0

     negative rho (up, down):  0.000E+00 7.461E-05

     total cpu time spent up to now is       11.2 secs

     total energy              =    -254.35740428 Ry
     estimated scf accuracy    <       0.00000020 Ry

     total magnetization       =     2.63 Bohr mag/cell
     absolute magnetization    =     2.82 Bohr mag/cell

     iteration # 10     ecut=    70.00 Ry     beta= 0.70
     Davidson diagonalization with overlap
     ethr =  1.24E-09,  avg # of iterations =  3.4

     negative rho (up, down):  0.000E+00 7.459E-05

     total cpu time spent up to now is       12.4 secs

     total energy              =    -254.35740436 Ry
     estimated scf accuracy    <       0.00000012 Ry

     total magnetization       =     2.63 Bohr mag/cell
     absolute magnetization    =     2.82 Bohr mag/cell

     iteration # 11     ecut=    70.00 Ry     beta= 0.70
     Davidson diagonalization with overlap
     ethr =  7.34E-10,  avg # of iterations =  1.1

     negative rho (up, down):  0.000E+00 7.458E-05

     total cpu time spent up to now is       13.3 secs

     total energy              =    -254.35740437 Ry
     estimated scf accuracy    <       0.00000001 Ry

     total magnetization       =     2.63 Bohr mag/cell
     absolute magnetization    =     2.82 Bohr mag/cell

     iteration # 12     ecut=    70.00 Ry     beta= 0.70
     Davidson diagonalization with overlap
     ethr =  7.57E-11,  avg # of iterations =  2.4

     negative rho (up, down):  0.000E+00 7.458E-05

     Magnetic moment per site  (integrated on atomic sphere of radius R)
     atom   1 (R=0.357)  charge= 14.5391  magn=  2.7198

     total cpu time spent up to now is       14.4 secs

     End of self-consistent calculation

 ------ SPIN UP ------------


          k = 0.0000 0.0000 0.1000 (   943 PWs)   bands (ev):

   -73.7304 -39.6541 -39.6508 -39.6508   7.1237  12.2634  12.2634  12.3062
    13.1574  13.2490  36.2571  37.1182

          k = 0.0000-0.1000 0.2000 (   930 PWs)   bands (ev):

   -73.7242 -39.6902 -39.6639 -39.6512   7.8166  12.1280  12.2449  12.6175
    13.0121  13.2926  32.7373  35.3597

          k = 0.0000-0.2000 0.3000 (   923 PWs)   bands (ev):

   -73.7142 -39.7511 -39.6852 -39.6504   9.0273  11.8941  12.1877  13.0069
    13.1801  13.3455  28.2245  33.3915

          k = 0.0000-0.3000 0.4000 (   913 PWs)   bands (ev):

   -73.7042 -39.8114 -39.7065 -39.6494  10.0675  11.6673  12.5755  13.1893
    13.5610  13.8010  24.0068  32.2942

          k = 0.0000-0.4000 0.5000 (   912 PWs)   bands (ev):

   -73.6981 -39.8486 -39.7198 -39.6489  10.3071  11.5305  13.0379  13.2272
    14.2218  14.8675  20.7327  31.2877

          k =-0.1000 0.1000 0.1000 (   935 PWs)   bands (ev):

   -73.7273 -39.6792 -39.6508 -39.6508   7.4753  12.1710  12.1710  12.5572
    13.1827  13.1827  34.7048  34.7048

          k =-0.1000-0.1000 0.3000 (   914 PWs)   bands (ev):

   -73.7162 -39.7312 -39.6781 -39.6597   8.7681  12.0798  12.0900  12.8707
    13.0438  13.3984  30.4720  31.2587

          k =-0.1000-0.2000 0.4000 (   917 PWs)   bands (ev):

   -73.7064 -39.7852 -39.7027 -39.6619   9.9648  11.8222  12.0677  12.9632
    13.4465  13.8892  26.3615  29.2695

          k =-0.1000-0.3000 0.5000 (   918 PWs)   bands (ev):

   -73.6984 -39.8283 -39.7242 -39.6620  10.5243  11.6684  12.3675  13.1359
    13.7500  15.1616  22.4422  28.1550

          k =-0.1000 0.6000-0.4000 (   916 PWs)   bands (ev):

   -73.6954 -39.8447 -39.7326 -39.6617  10.5609  11.6178  12.5574  13.1536
    13.9869  16.4845  20.2232  27.7538

          k =-0.2000 0.2000 0.1000 (   922 PWs)   bands (ev):

   -73.7191 -39.7285 -39.6680 -39.6506   8.4624  11.9507  12.0702  13.0678
    13.1050  13.2353  30.5026  32.8231

          k =-0.2000-0.2000 0.5000 (   916 PWs)   bands (ev):

   -73.6985 -39.8123 -39.7311 -39.6697  10.7896  11.5794  12.0677  13.0568
    13.5637  15.3160  24.8036  25.2200

          k =-0.2000 0.7000-0.4000 (   911 PWs)   bands (ev):

   -73.6937 -39.8232 -39.7567 -39.6717  11.0122  11.5971  12.0220  13.2200
    13.6874  17.4520  21.3976  24.2851

          k =-0.3000 0.3000 0.1000 (   920 PWs)   bands (ev):

   -73.7090 -39.7868 -39.6931 -39.6503   9.7259  11.7045  12.1461  13.1460
    13.2901  13.7923  26.0998  31.2626

          k =-0.3000 0.2000 0.2000 (   927 PWs)   bands (ev):

   -73.7108 -39.7753 -39.6809 -39.6602   9.5975  11.7928  11.8074  13.1174
    13.2968  13.8390  28.4334  29.0062

          k =-0.3000 0.7000-0.3000 (   919 PWs)   bands (ev):

   -73.6919 -39.7961 -39.7961 -39.6748  11.3612  11.6281  11.6281  13.4790
    13.4790  20.1305  20.1305  21.9691

          k =-0.4000 0.4000 0.1000 (   911 PWs)   bands (ev):

   -73.7008 -39.8322 -39.7141 -39.6499  10.3254  11.5188  13.0114  13.2647
    13.3341  14.7725  22.2247  30.2307

          k =-0.4000 0.3000 0.2000 (   912 PWs)   bands (ev):

   -73.7025 -39.8115 -39.7086 -39.6635  10.5773  11.5748  12.0001  13.1880
    13.3700  14.9857  24.4795  27.3957

          k = 0.5000-0.5000 0.1000 (   906 PWs)   bands (ev):

   -73.6977 -39.8493 -39.7222 -39.6498  10.3765  11.4503  13.2596  13.3516
    13.6238  15.7883  20.1416  29.8691

          k = 0.5000-0.6000 0.2000 (   908 PWs)   bands (ev):

   -73.6974 -39.8307 -39.7303 -39.6644  10.7247  11.4698  12.6015  13.2695
    13.4502  16.6607  21.0513  26.6576

          k = 0.5000-0.7000 0.3000 (   909 PWs)   bands (ev):

   -73.6973 -39.8146 -39.7391 -39.6734  11.0677  11.5313  11.9898  13.2644
    13.4338  16.8927  23.1605  23.7115

          k = 0.4000-0.6000 0.3000 (   908 PWs)   bands (ev):

   -73.6953 -39.8063 -39.7616 -39.6758  11.1163  11.5613  12.0536  13.3327
    13.4412  18.9072  20.6452  23.1403

          k = 0.0000 0.0000 0.3000 (   915 PWs)   bands (ev):

   -73.7183 -39.6969 -39.6773 -39.6773   8.4716  12.3187  12.3187  12.6305
    12.6612  13.4460  32.6419  33.4033

          k = 0.0000-0.1000 0.4000 (   922 PWs)   bands (ev):

   -73.7088 -39.7482 -39.6994 -39.6815   9.5807  12.1172  12.2084  12.6724
    13.1160  13.6609  28.7531  31.3512

          k = 0.0000-0.2000 0.5000 (   916 PWs)   bands (ev):

   -73.6992 -39.8043 -39.7212 -39.6794  10.4846  11.9322  12.0235  12.9586
    13.7461  14.4419  24.5043  29.7375

          k = 0.0000-0.3000 0.6000 (   918 PWs)   bands (ev):

   -73.6933 -39.8393 -39.7349 -39.6780  10.6512  11.9072  12.0910  13.0070
    14.1825  16.2584  21.0322  28.8104

          k =-0.1000-0.1000 0.5000 (   919 PWs)   bands (ev):

   -73.6995 -39.7844 -39.7245 -39.6928  10.5038  11.7279  12.3155  12.7792
    13.4993  14.4046  26.9609  27.3208

          k =-0.1000-0.2000 0.6000 (   910 PWs)   bands (ev):

   -73.6920 -39.8180 -39.7481 -39.6933  10.9372  11.5513  12.1709  13.0323
    13.8645  16.1962  23.1208  26.0192

          k =-0.1000 0.7000-0.3000 (   916 PWs)   bands (ev):

   -73.6892 -39.8317 -39.7576 -39.6931  10.9240  11.6824  12.0261  13.0991
    14.0624  18.0749  20.5351  25.5986

          k =-0.2000 0.8000-0.3000 (   915 PWs)   bands (ev):

   -73.6876 -39.8145 -39.7828 -39.6967  11.2800  11.3028  11.9655  13.4088
    13.7981  18.7445  21.9217  22.7490

          k =-0.3000 0.3000 0.3000 (   914 PWs)   bands (ev):

   -73.7041 -39.8048 -39.6837 -39.6837  10.7091  11.5732  11.5732  13.2740
    13.2740  14.9853  26.9140  26.9140

          k = 0.6000-0.6000 0.3000 (   908 PWs)   bands (ev):

   -73.6987 -39.8131 -39.7185 -39.6860  11.1478  11.4497  11.9261  13.3123
    13.3467  16.7020  23.1625  25.9719

          k = 0.5000-0.5000 0.3000 (   910 PWs)   bands (ev):

   -73.6966 -39.8103 -39.7380 -39.6871  11.0905  11.4113  12.2916  13.3379
    13.3657  18.4642  20.6135  25.6518

          k = 0.5000-0.6000 0.4000 (   918 PWs)   bands (ev):

   -73.6963 -39.7907 -39.7461 -39.7034  11.3196  11.5667  11.8559  13.3567
    13.3739  19.0831  22.1264  22.8171

          k = 0.0000 0.0000 0.5000 (   920 PWs)   bands (ev):

   -73.6999 -39.7533 -39.7220 -39.7220  10.3788  11.8405  12.6175  12.6175
    13.1625  14.2204  29.1244  29.1244

          k = 0.0000-0.1000 0.6000 (   919 PWs)   bands (ev):

   -73.6911 -39.7935 -39.7446 -39.7272  10.8742  11.4196  12.6480  12.9046
    13.6694  15.5664  25.4111  27.4049

          k = 0.0000-0.2000 0.7000 (   919 PWs)   bands (ev):

   -73.6856 -39.8240 -39.7587 -39.7245  10.9085  11.3004  12.5861  13.0275
    14.1193  17.8859  21.7509  26.4225

          k =-0.1000-0.1000 0.7000 (   913 PWs)   bands (ev):

   -73.6842 -39.8087 -39.7720 -39.7353  10.9807  11.0775  12.7061  13.3097
    13.9087  17.6640  24.0460  24.3449

          k =-0.1000 0.8000-0.2000 (   917 PWs)   bands (ev):

   -73.6816 -39.8153 -39.7854 -39.7352  10.9152  11.0290  12.6643  13.5133
    14.0279  20.0480  21.2384  23.7615

          k = 0.5000-0.5000 0.5000 (   928 PWs)   bands (ev):

   -73.6960 -39.7486 -39.7486 -39.7486  11.5971  11.5971  11.5971  13.3744
    13.3744  21.7735  21.7735  21.7735

          k = 0.0000 0.0000 0.7000 (   920 PWs)   bands (ev):

   -73.6829 -39.7893 -39.7680 -39.7680  10.8459  11.0138  13.2651  13.2651
    13.7027  17.2533  25.5661  25.5661

          k = 0.0000-0.1000 0.8000 (   900 PWs)   bands (ev):

   -73.6778 -39.8082 -39.7818 -39.7698  10.7292  10.7703  13.3887  13.5347
    14.0574  19.6976  22.8698  24.4978

          k =-0.1000 0.9000-0.1000 (   895 PWs)   bands (ev):

   -73.6754 -39.8015 -39.8015 -39.7736  10.6363  10.6363  13.4661  13.9819
    13.9819  22.1217  22.1217  22.6915

          k = 0.0000 0.0000 0.9000 (   888 PWs)   bands (ev):

   -73.6730 -39.7992 -39.7965 -39.7965  10.5046  10.5061  13.9626  13.9626
    14.0402  21.7609  23.3509  23.3509

 ------ SPIN DOWN ----------


          k = 0.0000 0.0000 0.1000 (   943 PWs)   bands (ev):

   -70.4070 -36.3761 -36.3721 -36.3721   7.2381  14.6994  14.6994  14.7582
    16.2186  16.3484  36.0043  36.8889

          k = 0.0000-0.1000 0.2000 (   930 PWs)   bands (ev):

   -70.4000 -36.4182 -36.3871 -36.3728   7.9406  14.5193  14.6373  15.1130
    15.9998  16.4034  33.0268  35.3786

          k = 0.0000-0.2000 0.3000 (   923 PWs)   bands (ev):

   -70.3888 -36.4889 -36.4114 -36.3720   9.2357  14.2135  14.4083  15.7660
    15.9159  16.4587  28.8934  33.4368

          k = 0.0000-0.3000 0.4000 (   913 PWs)   bands (ev):

   -70.3775 -36.5590 -36.4358 -36.3711  10.7761  13.9206  14.2502  16.0351
    16.5039  16.5360  24.9987  31.9109

          k = 0.0000-0.4000 0.5000 (   912 PWs)   bands (ev):

   -70.3705 -36.6021 -36.4509 -36.3706  11.7401  13.7458  14.6188  16.1297
    16.7168  17.0174  22.1972  31.0795

          k =-0.1000 0.1000 0.1000 (   935 PWs)   bands (ev):

   -70.4035 -36.4053 -36.3722 -36.3722   7.5931  14.5783  14.5783  15.0389
    16.2511  16.2511  34.7685  34.7685

          k =-0.1000-0.1000 0.3000 (   914 PWs)   bands (ev):

   -70.3910 -36.4660 -36.4035 -36.3826   8.9341  14.4086  14.4378  15.5823
    15.7573  16.5131  30.9302  31.8122

          k =-0.1000-0.2000 0.4000 (   917 PWs)   bands (ev):

   -70.3799 -36.5284 -36.4316 -36.3853  10.3766  14.0727  14.2088  15.7814
    16.2902  16.6530  27.1486  29.8408

          k =-0.1000-0.3000 0.5000 (   918 PWs)   bands (ev):

   -70.3709 -36.5784 -36.4563 -36.3855  11.7121  13.8558  14.1082  15.9681
    16.6069  17.3382  23.5745  28.7274

          k =-0.1000 0.6000-0.4000 (   916 PWs)   bands (ev):

   -70.3674 -36.5973 -36.4659 -36.3852  12.1612  13.8150  14.2321  16.0246
    16.7586  17.9831  21.7682  28.3157

          k =-0.2000 0.2000 0.1000 (   922 PWs)   bands (ev):

   -70.3942 -36.4627 -36.3920 -36.3722   8.6100  14.2873  14.3929  15.6044
    16.1074  16.3247  30.9830  33.0384

          k =-0.2000-0.2000 0.5000 (   916 PWs)   bands (ev):

   -70.3710 -36.5597 -36.4647 -36.3941  11.7278  13.6956  14.1093  15.8615
    16.5056  17.5375  25.6828  25.9965

          k =-0.2000 0.7000-0.4000 (   911 PWs)   bands (ev):

   -70.3655 -36.5722 -36.4944 -36.3965  12.6470  13.5989  13.9066  16.0498
    16.5408  19.0192  22.5898  25.0910

          k =-0.3000 0.3000 0.1000 (   920 PWs)   bands (ev):

   -70.3828 -36.5303 -36.4206 -36.3720  10.0944  13.9629  14.1522  16.1075
    16.3631  16.4102  26.9029  31.4881

          k =-0.3000 0.2000 0.2000 (   927 PWs)   bands (ev):

   -70.3849 -36.5168 -36.4069 -36.3832   9.8477  14.0236  14.0342  16.1072
    16.3478  16.4205  29.0071  29.6106

          k =-0.3000 0.7000-0.3000 (   919 PWs)   bands (ev):

   -70.3635 -36.5404 -36.5404 -36.3998  13.3420  13.4750  13.4750  16.3181
    16.3181  21.3172  21.3172  23.0300

          k =-0.4000 0.4000 0.1000 (   911 PWs)   bands (ev):

   -70.3736 -36.5832 -36.4447 -36.3718  11.4619  13.7201  14.2750  16.1912
    16.4847  17.1183  23.4040  30.4190

          k =-0.4000 0.3000 0.2000 (   912 PWs)   bands (ev):

   -70.3755 -36.5589 -36.4388 -36.3872  11.3313  13.7162  13.8584  16.1661
    16.4830  17.3178  25.3627  28.0150

          k = 0.5000-0.5000 0.1000 (   906 PWs)   bands (ev):

   -70.3700 -36.6030 -36.4538 -36.3717  11.9105  13.6310  14.6881  16.2247
    16.5156  17.5333  21.7431  30.0369

          k = 0.5000-0.6000 0.2000 (   908 PWs)   bands (ev):

   -70.3697 -36.5812 -36.4638 -36.3885  12.2382  13.5837  14.0504  16.2536
    16.5295  18.3582  22.3561  27.2678

          k = 0.5000-0.7000 0.3000 (   909 PWs)   bands (ev):

   -70.3695 -36.5625 -36.4744 -36.3986  12.4999  13.4750  13.7324  16.2564
    16.5100  18.7024  24.1045  24.5611

          k = 0.4000-0.6000 0.3000 (   908 PWs)   bands (ev):

   -70.3673 -36.5528 -36.5006 -36.4014  12.9063  13.4877  13.6855  16.3410
    16.4841  20.1757  21.9171  24.0170

          k = 0.0000 0.0000 0.3000 (   915 PWs)   bands (ev):

   -70.3934 -36.4269 -36.4025 -36.4025   8.6153  14.7046  14.7046  15.1370
    15.5147  16.5723  32.7563  33.9862

          k = 0.0000-0.1000 0.4000 (   922 PWs)   bands (ev):

   -70.3826 -36.4858 -36.4277 -36.4077   9.8456  14.5039  14.5549  15.3192
    15.6908  16.6942  29.4104  32.0406

          k = 0.0000-0.2000 0.5000 (   916 PWs)   bands (ev):

   -70.3718 -36.5505 -36.4527 -36.4054  11.2887  14.0422  14.3178  15.6088
    16.4362  16.9614  25.4368  30.4262

          k = 0.0000-0.3000 0.6000 (   918 PWs)   bands (ev):

   -70.3652 -36.5909 -36.4682 -36.4039  12.2133  13.9132  14.1692  15.7400
    16.9700  17.8224  22.3681  29.4551

          k =-0.1000-0.1000 0.5000 (   919 PWs)   bands (ev):

   -70.3722 -36.5274 -36.4567 -36.4206  11.1242  14.0637  14.6012  15.3508
    16.1976  16.9882  27.7364  28.0286

          k =-0.1000-0.2000 0.6000 (   910 PWs)   bands (ev):

   -70.3638 -36.5661 -36.4840 -36.4212  12.2932  13.6289  14.4261  15.6594
    16.6103  18.0280  24.1217  26.7531

          k =-0.1000 0.7000-0.3000 (   916 PWs)   bands (ev):

   -70.3605 -36.5817 -36.4949 -36.4209  12.7380  13.5420  14.2724  15.7503
    16.8249  19.3080  21.8948  26.3145

          k =-0.2000 0.8000-0.3000 (   915 PWs)   bands (ev):

   -70.3588 -36.5616 -36.5243 -36.4248  13.0840  13.3222  14.1277  16.0695
    16.5242  20.0616  22.9632  23.6628

          k =-0.3000 0.3000 0.3000 (   914 PWs)   bands (ev):

   -70.3772 -36.5510 -36.4105 -36.4105  11.1866  13.6925  13.6925  16.3584
    16.3584  17.3490  27.5403  27.5403

          k = 0.6000-0.6000 0.3000 (   908 PWs)   bands (ev):

   -70.3711 -36.5608 -36.4507 -36.4134  12.4276  13.4927  13.5755  16.3882
    16.4945  18.5837  24.0979  26.6166

          k = 0.5000-0.5000 0.3000 (   910 PWs)   bands (ev):

   -70.3687 -36.5576 -36.4732 -36.4148  12.7573  13.4272  13.7934  16.4125
    16.5361  19.7579  21.9437  26.2999

          k = 0.5000-0.6000 0.4000 (   918 PWs)   bands (ev):

   -70.3684 -36.5347 -36.4828 -36.4335  13.1171  13.3882  13.4883  16.4809
    16.5277  20.4234  23.1037  23.7192

          k = 0.0000 0.0000 0.5000 (   920 PWs)   bands (ev):

   -70.3727 -36.4921 -36.4537 -36.4537  10.9013  14.3751  14.9848  14.9848
    15.7624  16.9324  29.8337  29.8337

          k = 0.0000-0.1000 0.6000 (   919 PWs)   bands (ev):

   -70.3627 -36.5376 -36.4796 -36.4601  12.0165  13.7320  15.0227  15.3644
    16.3465  17.5519  26.2217  28.0750

          k = 0.0000-0.2000 0.7000 (   919 PWs)   bands (ev):

   -70.3565 -36.5725 -36.4958 -36.4570  12.7282  13.3026  14.9501  15.5226
    16.8940  19.1631  22.8228  27.0280

          k =-0.1000-0.1000 0.7000 (   913 PWs)   bands (ev):

   -70.3550 -36.5547 -36.5114 -36.4692  12.6672  13.2693  15.0601  15.8342
    16.6268  19.0159  24.8726  25.0682

          k =-0.1000 0.8000-0.2000 (   917 PWs)   bands (ev):

   -70.3520 -36.5620 -36.5270 -36.4689  12.9661  13.0148  14.9714  16.0927
    16.7658  21.0114  22.2628  24.4853

          k = 0.5000-0.5000 0.5000 (   928 PWs)   bands (ev):

   -70.3679 -36.4858 -36.4858 -36.4858  13.3714  13.3714  13.3714  16.5488
    16.5488  22.7610  22.7610  22.7610

          k = 0.0000 0.0000 0.7000 (   920 PWs)   bands (ev):

   -70.3535 -36.5323 -36.5065 -36.5065  12.4943  13.2654  15.7348  15.7348
    16.4022  18.5878  26.1605  26.1605

          k = 0.0000-0.1000 0.8000 (   900 PWs)   bands (ev):

   -70.3479 -36.5536 -36.5226 -36.5090  12.6990  12.8885  15.9205  16.0654
    16.8201  20.5886  23.5622  24.9897

          k =-0.1000 0.9000-0.1000 (   895 PWs)   bands (ev):

   -70.3451 -36.5455 -36.5455 -36.5132  12.7042  12.7042  15.9925  16.6997
    16.6997  22.7456  22.7456  23.2688

          k = 0.0000 0.0000 0.9000 (   888 PWs)   bands (ev):

   -70.3425 -36.5429 -36.5395 -36.5395  12.5551  12.6030  16.6727  16.6727
    16.8042  22.2627  23.6875  23.6875

     the Fermi energy is    14.5124 ev

!    total energy              =    -254.35740437 Ry
     estimated scf accuracy    <          4.0E-10 Ry
     smearing contrib. (-TS)   =       0.00140968 Ry
     internal energy E=F+TS    =    -254.35881405 Ry

     The total energy is F=E-TS. E is the sum of the following terms:
     one-electron contribution =    -127.93297271 Ry
     hartree contribution      =      71.78818651 Ry
     xc contribution           =     -34.76775363 Ry
     ewald contribution        =    -163.44627422 Ry

     total magnetization       =     2.63 Bohr mag/cell
     absolute magnetization    =     2.82 Bohr mag/cell

     convergence has been achieved in  12 iterations

     Writing output data file ./tempdir/fe.save/

     init_run     :      0.85s CPU      0.89s WALL (       1 calls)
     electrons    :     12.97s CPU     13.42s WALL (       1 calls)

     Called by init_run:
     wfcinit      :      0.27s CPU      0.28s WALL (       1 calls)
     potinit      :      0.09s CPU      0.10s WALL (       1 calls)
     hinit0       :      0.40s CPU      0.40s WALL (       1 calls)

     Called by electrons:
     c_bands      :      8.06s CPU      8.12s WALL (      12 calls)
     sum_band     :      2.93s CPU      3.12s WALL (      12 calls)
     v_of_rho     :      1.05s CPU      1.11s WALL (      13 calls)
     newd         :      0.91s CPU      1.08s WALL (      13 calls)
     mix_rho      :      0.09s CPU      0.09s WALL (      12 calls)

     Called by c_bands:
     init_us_2    :      0.18s CPU      0.18s WALL (    1100 calls)
     cegterg      :      7.29s CPU      7.35s WALL (     528 calls)

     Called by *egterg:
     cdiaghg      :      0.21s CPU      0.21s WALL (    1950 calls)
     h_psi        :      6.71s CPU      6.76s WALL (    1994 calls)
     s_psi        :      0.08s CPU      0.09s WALL (    1994 calls)
     g_psi        :      0.04s CPU      0.04s WALL (    1422 calls)

     Called by h_psi:
     h_psi:calbec :      0.11s CPU      0.11s WALL (    1994 calls)
     vloc_psi     :      6.49s CPU      6.54s WALL (    1994 calls)
     add_vuspsi   :      0.09s CPU      0.09s WALL (    1994 calls)

     General routines
     calbec       :      0.14s CPU      0.14s WALL (    2522 calls)
     fft          :      0.45s CPU      0.46s WALL (     319 calls)
     ffts         :      0.01s CPU      0.01s WALL (      50 calls)
     fftw         :      7.10s CPU      7.15s WALL (   40202 calls)
     interpolate  :      0.05s CPU      0.05s WALL (      26 calls)

     Parallel routines

     PWSCF        :     13.91s CPU     14.40s WALL


   This run was terminated on:   0:19:39  19Apr2021            

=------------------------------------------------------------------------------=
   JOB DONE.
=------------------------------------------------------------------------------=
