
     Program PWSCF v.6.7GPU starts on 19Apr2021 at  0:19:13 

     This program is part of the open-source Quantum ESPRESSO suite
     for quantum simulation of materials; please cite
         "P. Giannozzi et al., J. Phys.:Condens. Matter 21 395502 (2009);
         "P. Giannozzi et al., J. Phys.:Condens. Matter 29 465901 (2017);
         "P. Giannozzi et al., J. Chem. Phys. 152 154105 (2020);
          URL http://www.quantum-espresso.org", 
     in publications or presentations arising from this work. More details at
     http://www.quantum-espresso.org/quote

     Parallel version (MPI & OpenMP), running on       2 processor cores
     Number of MPI processes:                 2
     Threads/MPI process:                     1

     MPI processes distributed on     1 nodes
     K-points division:     npool     =       2
     Reading input from fe.scf.5.6.in

     Current dimensions of program PWSCF are:
     Max number of different atomic species (ntypx) = 10
     Max number of k-points (npk) =  40000
     Max angular momentum in pseudopotentials (lmaxx) =  3

     Subspace diagonalization in iterative solution of the eigenvalue problem:
     a serial algorithm will be used


     G-vector sticks info
     --------------------
     sticks:   dense  smooth     PW     G-vecs:    dense   smooth      PW
     Sum        1501     487    159                36753     6963    1253

     Using Slab Decomposition



     bravais-lattice index     =            3
     lattice parameter (alat)  =       5.6000  a.u.
     unit-cell volume          =      87.8080 (a.u.)^3
     number of atoms/cell      =            1
     number of atomic types    =            1
     number of electrons       =        16.00
     number of Kohn-Sham states=           12
     kinetic-energy cutoff     =      70.0000  Ry
     charge density cutoff     =     850.0000  Ry
     scf convergence threshold =      1.0E-08
     mixing beta               =       0.7000
     number of iterations used =            8  plain     mixing
     Exchange-correlation= PBE
                           (   1   4   3   4   0   0   0)

     celldm(1)=   5.600000  celldm(2)=   0.000000  celldm(3)=   0.000000
     celldm(4)=   0.000000  celldm(5)=   0.000000  celldm(6)=   0.000000

     crystal axes: (cart. coord. in units of alat)
               a(1) = (   0.500000   0.500000   0.500000 )  
               a(2) = (  -0.500000   0.500000   0.500000 )  
               a(3) = (  -0.500000  -0.500000   0.500000 )  

     reciprocal axes: (cart. coord. in units 2 pi/alat)
               b(1) = (  1.000000  0.000000  1.000000 )  
               b(2) = ( -1.000000  1.000000  0.000000 )  
               b(3) = (  0.000000 -1.000000  1.000000 )  


     PseudoPot. # 1 for Fe read from file:
     /home/pietro/repositories/materials-for-max-qe2021-online-school/pseudo/Fe.pbe-spn-rrkjus_psl.0.2.1.UPF
     MD5 check sum: f9af58635850a145d9bd408d58feeb93
     Pseudo is Ultrasoft + core correction, Zval = 16.0
     Generated using "atomic" code by A. Dal Corso  v.5.0.2 svn rev. 9415
     Using radial grid of 1191 points,  6 beta functions with: 
                l(1) =   0
                l(2) =   0
                l(3) =   1
                l(4) =   1
                l(5) =   2
                l(6) =   2
     Q(r) pseudized with 0 coefficients 


     atomic species   valence    mass     pseudopotential
        Fe            16.00    55.84500     Fe( 1.00)

     Starting magnetic structure 
     atomic species   magnetization
        Fe           0.700

     48 Sym. Ops., with inversion, found



   Cartesian axes

     site n.     atom                  positions (alat units)
         1           Fe  tau(   1) = (   0.0000000   0.0000000   0.0000000  )

     number of k points=    44  Marzari-Vanderbilt smearing, width (Ry)=  0.0200
                       cart. coord. in units 2pi/alat
        k(    1) = (   0.0000000   0.0000000   0.1000000), wk =   0.0060000
        k(    2) = (   0.0000000  -0.1000000   0.2000000), wk =   0.0240000
        k(    3) = (   0.0000000  -0.2000000   0.3000000), wk =   0.0240000
        k(    4) = (   0.0000000  -0.3000000   0.4000000), wk =   0.0240000
        k(    5) = (   0.0000000  -0.4000000   0.5000000), wk =   0.0240000
        k(    6) = (  -0.1000000   0.1000000   0.1000000), wk =   0.0080000
        k(    7) = (  -0.1000000  -0.1000000   0.3000000), wk =   0.0240000
        k(    8) = (  -0.1000000  -0.2000000   0.4000000), wk =   0.0480000
        k(    9) = (  -0.1000000  -0.3000000   0.5000000), wk =   0.0480000
        k(   10) = (  -0.1000000   0.6000000  -0.4000000), wk =   0.0240000
        k(   11) = (  -0.2000000   0.2000000   0.1000000), wk =   0.0240000
        k(   12) = (  -0.2000000  -0.2000000   0.5000000), wk =   0.0240000
        k(   13) = (  -0.2000000   0.7000000  -0.4000000), wk =   0.0480000
        k(   14) = (  -0.3000000   0.3000000   0.1000000), wk =   0.0240000
        k(   15) = (  -0.3000000   0.2000000   0.2000000), wk =   0.0240000
        k(   16) = (  -0.3000000   0.7000000  -0.3000000), wk =   0.0080000
        k(   17) = (  -0.4000000   0.4000000   0.1000000), wk =   0.0240000
        k(   18) = (  -0.4000000   0.3000000   0.2000000), wk =   0.0480000
        k(   19) = (   0.5000000  -0.5000000   0.1000000), wk =   0.0120000
        k(   20) = (   0.5000000  -0.6000000   0.2000000), wk =   0.0480000
        k(   21) = (   0.5000000  -0.7000000   0.3000000), wk =   0.0240000
        k(   22) = (   0.4000000  -0.6000000   0.3000000), wk =   0.0240000
        k(   23) = (   0.0000000   0.0000000   0.3000000), wk =   0.0060000
        k(   24) = (   0.0000000  -0.1000000   0.4000000), wk =   0.0240000
        k(   25) = (   0.0000000  -0.2000000   0.5000000), wk =   0.0240000
        k(   26) = (   0.0000000  -0.3000000   0.6000000), wk =   0.0240000
        k(   27) = (  -0.1000000  -0.1000000   0.5000000), wk =   0.0240000
        k(   28) = (  -0.1000000  -0.2000000   0.6000000), wk =   0.0480000
        k(   29) = (  -0.1000000   0.7000000  -0.3000000), wk =   0.0240000
        k(   30) = (  -0.2000000   0.8000000  -0.3000000), wk =   0.0240000
        k(   31) = (  -0.3000000   0.3000000   0.3000000), wk =   0.0080000
        k(   32) = (   0.6000000  -0.6000000   0.3000000), wk =   0.0240000
        k(   33) = (   0.5000000  -0.5000000   0.3000000), wk =   0.0120000
        k(   34) = (   0.5000000  -0.6000000   0.4000000), wk =   0.0240000
        k(   35) = (   0.0000000   0.0000000   0.5000000), wk =   0.0060000
        k(   36) = (   0.0000000  -0.1000000   0.6000000), wk =   0.0240000
        k(   37) = (   0.0000000  -0.2000000   0.7000000), wk =   0.0240000
        k(   38) = (  -0.1000000  -0.1000000   0.7000000), wk =   0.0240000
        k(   39) = (  -0.1000000   0.8000000  -0.2000000), wk =   0.0240000
        k(   40) = (   0.5000000  -0.5000000   0.5000000), wk =   0.0020000
        k(   41) = (   0.0000000   0.0000000   0.7000000), wk =   0.0060000
        k(   42) = (   0.0000000  -0.1000000   0.8000000), wk =   0.0240000
        k(   43) = (  -0.1000000   0.9000000  -0.1000000), wk =   0.0080000
        k(   44) = (   0.0000000   0.0000000   0.9000000), wk =   0.0060000

     Dense  grid:    36753 G-vectors     FFT dimensions: (  45,  45,  45)

     Smooth grid:     6963 G-vectors     FFT dimensions: (  25,  25,  25)

     Estimated max dynamical RAM per process >      99.01 MB

     Estimated total dynamical RAM >     180.07 MB

     Check: negative core charge=   -0.000010
     Generating pointlists ...
     new r_m :   0.3572 (alat units)  2.0005 (a.u.) for type    1

     Initial potential from superposition of free atoms

     starting charge   15.99956, renormalised to   16.00000
     Starting wfcs are   13 randomized atomic wfcs

     total cpu time spent up to now is        0.9 secs

     Self-consistent Calculation

     iteration #  1     ecut=    70.00 Ry     beta= 0.70
     Davidson diagonalization with overlap
     ethr =  1.00E-02,  avg # of iterations =  2.9

     negative rho (up, down):  0.000E+00 7.398E-05

     total cpu time spent up to now is        1.9 secs

     total energy              =    -254.08713622 Ry
     estimated scf accuracy    <       1.45998083 Ry

     total magnetization       =     3.94 Bohr mag/cell
     absolute magnetization    =     3.99 Bohr mag/cell

     iteration #  2     ecut=    70.00 Ry     beta= 0.70
     Davidson diagonalization with overlap
     ethr =  9.12E-03,  avg # of iterations =  1.3

     negative rho (up, down):  0.000E+00 8.008E-05

     total cpu time spent up to now is        2.8 secs

     total energy              =    -254.24718545 Ry
     estimated scf accuracy    <       0.38874536 Ry

     total magnetization       =     3.06 Bohr mag/cell
     absolute magnetization    =     3.26 Bohr mag/cell

     iteration #  3     ecut=    70.00 Ry     beta= 0.70
     Davidson diagonalization with overlap
     ethr =  2.43E-03,  avg # of iterations =  2.0

     negative rho (up, down):  0.000E+00 8.827E-05

     total cpu time spent up to now is        3.7 secs

     total energy              =    -254.27916805 Ry
     estimated scf accuracy    <       0.51205178 Ry

     total magnetization       =     2.76 Bohr mag/cell
     absolute magnetization    =     2.93 Bohr mag/cell

     iteration #  4     ecut=    70.00 Ry     beta= 0.70
     Davidson diagonalization with overlap
     ethr =  2.43E-03,  avg # of iterations =  2.0

     negative rho (up, down):  0.000E+00 7.193E-05

     total cpu time spent up to now is        4.6 secs

     total energy              =    -254.36120042 Ry
     estimated scf accuracy    <       0.00079966 Ry

     total magnetization       =     2.57 Bohr mag/cell
     absolute magnetization    =     2.77 Bohr mag/cell

     iteration #  5     ecut=    70.00 Ry     beta= 0.70
     Davidson diagonalization with overlap
     ethr =  5.00E-06,  avg # of iterations =  6.7

     negative rho (up, down):  0.000E+00 7.034E-05

     total cpu time spent up to now is        6.1 secs

     total energy              =    -254.36286092 Ry
     estimated scf accuracy    <       0.00054084 Ry

     total magnetization       =     2.58 Bohr mag/cell
     absolute magnetization    =     2.76 Bohr mag/cell

     iteration #  6     ecut=    70.00 Ry     beta= 0.70
     Davidson diagonalization with overlap
     ethr =  3.38E-06,  avg # of iterations =  1.5

     negative rho (up, down):  0.000E+00 6.489E-05

     total cpu time spent up to now is        7.0 secs

     total energy              =    -254.36288032 Ry
     estimated scf accuracy    <       0.00012377 Ry

     total magnetization       =     2.57 Bohr mag/cell
     absolute magnetization    =     2.75 Bohr mag/cell

     iteration #  7     ecut=    70.00 Ry     beta= 0.70
     Davidson diagonalization with overlap
     ethr =  7.74E-07,  avg # of iterations =  1.9

     negative rho (up, down):  0.000E+00 6.573E-05

     total cpu time spent up to now is        8.0 secs

     total energy              =    -254.36291739 Ry
     estimated scf accuracy    <       0.00000686 Ry

     total magnetization       =     2.55 Bohr mag/cell
     absolute magnetization    =     2.73 Bohr mag/cell

     iteration #  8     ecut=    70.00 Ry     beta= 0.70
     Davidson diagonalization with overlap
     ethr =  4.29E-08,  avg # of iterations =  3.7

     negative rho (up, down):  0.000E+00 6.553E-05

     total cpu time spent up to now is        9.1 secs

     total energy              =    -254.36291996 Ry
     estimated scf accuracy    <       0.00001316 Ry

     total magnetization       =     2.55 Bohr mag/cell
     absolute magnetization    =     2.73 Bohr mag/cell

     iteration #  9     ecut=    70.00 Ry     beta= 0.70
     Davidson diagonalization with overlap
     ethr =  4.29E-08,  avg # of iterations =  2.0

     negative rho (up, down):  0.000E+00 6.531E-05

     total cpu time spent up to now is       10.0 secs

     total energy              =    -254.36292234 Ry
     estimated scf accuracy    <       0.00000009 Ry

     total magnetization       =     2.55 Bohr mag/cell
     absolute magnetization    =     2.73 Bohr mag/cell

     iteration # 10     ecut=    70.00 Ry     beta= 0.70
     Davidson diagonalization with overlap
     ethr =  5.63E-10,  avg # of iterations =  4.1

     negative rho (up, down):  0.000E+00 6.528E-05

     Magnetic moment per site  (integrated on atomic sphere of radius R)
     atom   1 (R=0.357)  charge= 14.5004  magn=  2.6311

     total cpu time spent up to now is       11.1 secs

     End of self-consistent calculation

 ------ SPIN UP ------------


          k = 0.0000 0.0000 0.1000 (   903 PWs)   bands (ev):

   -72.7091 -38.6099 -38.6057 -38.6057   7.8517  13.2359  13.2359  13.2828
    14.2097  14.3111  37.7744  38.6876

          k = 0.0000-0.1000 0.2000 (   881 PWs)   bands (ev):

   -72.7013 -38.6536 -38.6214 -38.6059   8.5723  13.0873  13.2129  13.6202
    14.0496  14.3594  34.3262  36.9675

          k = 0.0000-0.2000 0.3000 (   876 PWs)   bands (ev):

   -72.6886 -38.7276 -38.6472 -38.6053   9.8222  12.8313  13.1414  14.0447
    14.2309  14.4178  29.7785  34.9485

          k = 0.0000-0.3000 0.4000 (   868 PWs)   bands (ev):

   -72.6759 -38.8010 -38.6727 -38.6045  10.8806  12.5835  13.5435  14.2418
    14.6331  14.9066  25.4827  33.3985

          k = 0.0000-0.4000 0.5000 (   856 PWs)   bands (ev):

   -72.6681 -38.8459 -38.6881 -38.6038  11.1166  12.4344  14.0649  14.2873
    15.3655  15.9021  22.1653  33.0130

          k =-0.1000 0.1000 0.1000 (   884 PWs)   bands (ev):

   -72.7051 -38.6400 -38.6054 -38.6054   8.2177  13.1344  13.1344  13.5549
    14.2379  14.2379  36.2838  36.2838

          k =-0.1000-0.1000 0.3000 (   880 PWs)   bands (ev):

   -72.6912 -38.7041 -38.6390 -38.6171   9.5566  13.0324  13.0406  13.8944
    14.0819  14.4756  32.0129  32.9347

          k =-0.1000-0.2000 0.4000 (   866 PWs)   bands (ev):

   -72.6786 -38.7688 -38.6682 -38.6192  10.7861  12.7480  13.0100  13.9958
    14.5271  14.9898  27.8779  30.8592

          k =-0.1000-0.3000 0.5000 (   869 PWs)   bands (ev):

   -72.6685 -38.8215 -38.6943 -38.6191  11.3521  12.5825  13.3234  14.1854
    14.8480  16.2991  23.8837  29.7080

          k =-0.1000 0.6000-0.4000 (   860 PWs)   bands (ev):

   -72.6646 -38.8411 -38.7039 -38.6189  11.3851  12.5280  13.5310  14.2065
    15.1027  17.6084  21.6515  29.2937

          k =-0.2000 0.2000 0.1000 (   876 PWs)   bands (ev):

   -72.6948 -38.7007 -38.6266 -38.6051   9.2412  12.8929  13.0200  14.1079
    14.1529  14.2965  32.0774  34.3936

          k =-0.2000-0.2000 0.5000 (   869 PWs)   bands (ev):

   -72.6687 -38.8018 -38.7030 -38.6286  11.6395  12.4775  13.0084  14.0981
    14.6530  16.4805  26.2384  26.7616

          k =-0.2000 0.7000-0.4000 (   868 PWs)   bands (ev):

   -72.6625 -38.8152 -38.7343 -38.6312  11.8698  12.4997  12.9518  14.2767
    14.7830  18.6650  22.7990  25.7598

          k =-0.3000 0.3000 0.1000 (   872 PWs)   bands (ev):

   -72.6820 -38.7706 -38.6569 -38.6054  10.5391  12.6239  13.0906  14.1989
    14.3578  14.8881  27.6130  32.7907

          k =-0.3000 0.2000 0.2000 (   870 PWs)   bands (ev):

   -72.6842 -38.7562 -38.6420 -38.6171  10.4141  12.7157  12.7341  14.1671
    14.3652  14.9372  29.9384  30.6142

          k =-0.3000 0.7000-0.3000 (   871 PWs)   bands (ev):

   -72.6602 -38.7820 -38.7820 -38.6345  12.2514  12.5256  12.5256  14.5575
    14.5575  21.4193  21.4193  23.4638

          k =-0.4000 0.4000 0.1000 (   864 PWs)   bands (ev):

   -72.6716 -38.8263 -38.6819 -38.6053  11.1421  12.4214  14.0042  14.3217
    14.4074  15.9009  23.6674  31.7188

          k =-0.4000 0.3000 0.2000 (   869 PWs)   bands (ev):

   -72.6737 -38.8014 -38.6757 -38.6214  11.4182  12.4793  12.9304  14.2449
    14.4459  16.1432  25.9495  28.9305

          k = 0.5000-0.5000 0.1000 (   858 PWs)   bands (ev):

   -72.6676 -38.8472 -38.6913 -38.6053  11.1894  12.3468  14.3247  14.4273
    14.6638  16.8819  21.5760  31.3414

          k = 0.5000-0.6000 0.2000 (   864 PWs)   bands (ev):

   -72.6672 -38.8243 -38.7023 -38.6227  11.5627  12.3660  13.5702  14.3349
    14.5296  17.8395  22.4695  28.1671

          k = 0.5000-0.7000 0.3000 (   859 PWs)   bands (ev):

   -72.6670 -38.8051 -38.7125 -38.6331  11.9332  12.4256  12.9169  14.3286
    14.5145  18.1115  24.5436  25.2208

          k = 0.4000-0.6000 0.3000 (   862 PWs)   bands (ev):

   -72.6645 -38.7946 -38.7403 -38.6365  11.9840  12.4584  12.9833  14.4035
    14.5210  20.1483  22.0268  24.6017

          k = 0.0000 0.0000 0.3000 (   883 PWs)   bands (ev):

   -72.6938 -38.6631 -38.6380 -38.6380   9.2505  13.2928  13.2928  13.6339
    13.6620  14.5281  34.1183  35.1326

          k = 0.0000-0.1000 0.4000 (   872 PWs)   bands (ev):

   -72.6817 -38.7240 -38.6642 -38.6428  10.3929  13.0649  13.1716  13.6756
    14.1607  14.7582  30.3176  33.0485

          k = 0.0000-0.2000 0.5000 (   866 PWs)   bands (ev):

   -72.6696 -38.7924 -38.6901 -38.6404  11.3160  12.8564  12.9696  13.9880
    14.8464  15.5602  25.9865  31.3891

          k = 0.0000-0.3000 0.6000 (   860 PWs)   bands (ev):

   -72.6621 -38.8343 -38.7062 -38.6387  11.4803  12.8427  13.0253  14.0436
    15.3225  17.3959  22.4546  30.4266

          k =-0.1000-0.1000 0.5000 (   872 PWs)   bands (ev):

   -72.6700 -38.7679 -38.6948 -38.6565  11.3408  12.6386  13.2843  13.7918
    14.5793  15.5325  28.4612  28.9098

          k =-0.1000-0.2000 0.6000 (   864 PWs)   bands (ev):

   -72.6605 -38.8088 -38.7234 -38.6571  11.7866  12.4437  13.1263  14.0682
    14.9752  17.3758  24.5619  27.5344

          k =-0.1000 0.7000-0.3000 (   863 PWs)   bands (ev):

   -72.6569 -38.8249 -38.7346 -38.6566  11.7689  12.5827  12.9708  14.1417
    15.1900  19.2706  21.9459  27.0969

          k =-0.2000 0.8000-0.3000 (   872 PWs)   bands (ev):

   -72.6549 -38.8042 -38.7657 -38.6611  12.1490  12.1749  12.9044  14.4773
    14.9018  20.0027  23.2741  24.2262

          k =-0.3000 0.3000 0.3000 (   869 PWs)   bands (ev):

   -72.6757 -38.7930 -38.6458 -38.6458  11.5655  12.4767  12.4767  14.3406
    14.3406  16.1494  28.3803  28.3803

          k = 0.6000-0.6000 0.3000 (   867 PWs)   bands (ev):

   -72.6688 -38.8033 -38.6882 -38.6490  12.0167  12.3425  12.8473  14.3828
    14.4216  17.9201  24.5939  27.4106

          k = 0.5000-0.5000 0.3000 (   866 PWs)   bands (ev):

   -72.6661 -38.7999 -38.7119 -38.6501  11.9532  12.3010  13.2372  14.4110
    14.4429  19.6869  22.0243  27.0803

          k = 0.5000-0.6000 0.4000 (   870 PWs)   bands (ev):

   -72.6657 -38.7759 -38.7212 -38.6700  12.2011  12.4639  12.7722  14.4321
    14.4515  20.3612  23.4747  24.2994

          k = 0.0000 0.0000 0.5000 (   875 PWs)   bands (ev):

   -72.6705 -38.7307 -38.6916 -38.6916  11.2105  12.7609  13.6140  13.6140
    14.2113  15.3459  30.7500  30.7500

          k = 0.0000-0.1000 0.6000 (   868 PWs)   bands (ev):

   -72.6593 -38.7788 -38.7187 -38.6978  11.7185  12.3011  13.6468  13.9263
    14.7624  16.7303  26.9067  28.9650

          k = 0.0000-0.2000 0.7000 (   864 PWs)   bands (ev):

   -72.6524 -38.8155 -38.7355 -38.6943  11.7490  12.1697  13.5793  14.0609
    15.2535  19.1034  23.1579  27.9382

          k =-0.1000-0.1000 0.7000 (   861 PWs)   bands (ev):

   -72.6506 -38.7971 -38.7520 -38.7070  11.8259  11.9289  13.7096  14.3667
    15.0232  18.8894  25.4682  25.8256

          k =-0.1000 0.8000-0.2000 (   866 PWs)   bands (ev):

   -72.6473 -38.8049 -38.7684 -38.7068  11.7533  11.8759  13.6638  14.5893
    15.1527  21.3171  22.6233  25.2006

          k = 0.5000-0.5000 0.5000 (   868 PWs)   bands (ev):

   -72.6652 -38.7242 -38.7242 -38.7242  12.4968  12.4968  12.4968  14.4525
    14.4525  23.1099  23.1099  23.1099

          k = 0.0000 0.0000 0.7000 (   868 PWs)   bands (ev):

   -72.6490 -38.7729 -38.7470 -38.7470  11.6805  11.8594  14.3171  14.3171
    14.7992  18.4642  27.0447  27.0447

          k = 0.0000-0.1000 0.8000 (   859 PWs)   bands (ev):

   -72.6426 -38.7964 -38.7643 -38.7493  11.5513  11.5954  14.4529  14.6116
    15.1858  20.9739  24.2601  25.9201

          k =-0.1000 0.9000-0.1000 (   862 PWs)   bands (ev):

   -72.6396 -38.7883 -38.7883 -38.7543  11.4502  11.4502  14.5371  15.1023
    15.1023  23.4512  23.4512  24.0933

          k = 0.0000 0.0000 0.9000 (   856 PWs)   bands (ev):

   -72.6366 -38.7858 -38.7820 -38.7820  11.3075  11.3088  15.0811  15.0811
    15.1673  23.0799  24.7093  24.7093

 ------ SPIN DOWN ----------


          k = 0.0000 0.0000 0.1000 (   903 PWs)   bands (ev):

   -69.4845 -35.4275 -35.4225 -35.4225   7.9853  15.5885  15.5885  15.6512
    17.2033  17.3436  37.5614  38.4742

          k = 0.0000-0.1000 0.2000 (   881 PWs)   bands (ev):

   -69.4757 -35.4781 -35.4404 -35.4230   8.7160  15.3952  15.5224  16.0316
    16.9675  17.4034  34.6212  37.0014

          k = 0.0000-0.2000 0.3000 (   876 PWs)   bands (ev):

   -69.4615 -35.5634 -35.4696 -35.4225  10.0522  15.0676  15.2825  16.7319
    16.8802  17.4641  30.4583  35.0127

          k = 0.0000-0.3000 0.4000 (   868 PWs)   bands (ev):

   -69.4472 -35.6478 -35.4985 -35.4218  11.6049  14.7546  15.1449  17.0123
    17.5236  17.5499  26.4841  33.4328

          k = 0.0000-0.4000 0.5000 (   856 PWs)   bands (ev):

   -69.4384 -35.6994 -35.5160 -35.4212  12.5164  14.5681  15.5878  17.1159
    17.7509  18.0751  23.6166  32.5682

          k =-0.1000 0.1000 0.1000 (   884 PWs)   bands (ev):

   -69.4800 -35.4623 -35.4223 -35.4223   8.3549  15.4584  15.4584  15.9527
    17.2385  17.2385  36.3644  36.3644

          k =-0.1000-0.1000 0.3000 (   880 PWs)   bands (ev):

   -69.4643 -35.5362 -35.4605 -35.4358   9.7433  15.2780  15.3081  16.5356
    16.7078  17.5236  32.4893  33.4802

          k =-0.1000-0.2000 0.4000 (   866 PWs)   bands (ev):

   -69.4503 -35.6107 -35.4937 -35.4384  11.2179  14.9200  15.0712  16.7375
    17.2938  17.6810  28.6776  31.4335

          k =-0.1000-0.3000 0.5000 (   869 PWs)   bands (ev):

   -69.4389 -35.6711 -35.5233 -35.4384  12.5299  14.6934  14.9960  16.9411
    17.6309  18.4277  25.0213  30.2841

          k =-0.1000 0.6000-0.4000 (   860 PWs)   bands (ev):

   -69.4345 -35.6936 -35.5343 -35.4382  12.9387  14.6443  15.1572  17.0028
    17.7953  19.1132  23.1739  29.8595

          k =-0.2000 0.2000 0.1000 (   876 PWs)   bands (ev):

   -69.4684 -35.5322 -35.4463 -35.4222   9.4089  15.1467  15.2611  16.5600
    17.0850  17.3182  32.5672  34.6263

          k =-0.2000-0.2000 0.5000 (   869 PWs)   bands (ev):

   -69.4391 -35.6483 -35.5338 -35.4490  12.5767  14.5230  14.9705  16.8253
    17.5212  18.6449  27.1374  27.5391

          k =-0.2000 0.7000-0.4000 (   868 PWs)   bands (ev):

   -69.4321 -35.6636 -35.5696 -35.4519  13.4606  14.4386  14.7659  17.0295
    17.5598  20.2186  23.9939  26.5722

          k =-0.3000 0.3000 0.1000 (   872 PWs)   bands (ev):

   -69.4540 -35.6129 -35.4807 -35.4227  10.9289  14.8001  15.0177  17.0881
    17.3753  17.4108  28.4272  33.0329

          k =-0.3000 0.2000 0.2000 (   870 PWs)   bands (ev):

   -69.4565 -35.5961 -35.4642 -35.4359  10.6837  14.8674  14.8789  17.0857
    17.3554  17.4282  30.5318  31.2114

          k =-0.3000 0.7000-0.3000 (   871 PWs)   bands (ev):

   -69.4296 -35.6249 -35.6249 -35.4556  14.1605  14.3147  14.3147  17.3189
    17.3189  22.6173  22.6173  24.5105

          k =-0.4000 0.4000 0.1000 (   864 PWs)   bands (ev):

   -69.4423 -35.6768 -35.5091 -35.4228  12.2709  14.5413  15.2007  17.1804
    17.4918  18.1875  24.8495  31.9218

          k =-0.4000 0.3000 0.2000 (   869 PWs)   bands (ev):

   -69.4447 -35.6480 -35.5027 -35.4410  12.1814  14.5433  14.7088  17.1509
    17.4915  18.4052  26.8437  29.5545

          k = 0.5000-0.5000 0.1000 (   858 PWs)   bands (ev):

   -69.4378 -35.7009 -35.5198 -35.4228  12.6790  14.4465  15.6686  17.2175
    17.5254  18.6314  23.1514  31.5234

          k = 0.5000-0.6000 0.2000 (   864 PWs)   bands (ev):

   -69.4373 -35.6745 -35.5330 -35.4426  13.0366  14.4010  14.9621  17.2469
    17.5420  19.5137  23.7688  28.7820

          k = 0.5000-0.7000 0.3000 (   859 PWs)   bands (ev):

   -69.4372 -35.6522 -35.5453 -35.4544  13.3383  14.3003  14.5832  17.2483
    17.5219  19.8858  25.5028  26.0707

          k = 0.4000-0.6000 0.3000 (   862 PWs)   bands (ev):

   -69.4343 -35.6401 -35.5772 -35.4583  13.7129  14.3133  14.5590  17.3400
    17.4938  21.4208  23.2902  25.4823

          k = 0.0000 0.0000 0.3000 (   883 PWs)   bands (ev):

   -69.4673 -35.4898 -35.4591 -35.4591   9.4147  15.5953  15.5953  16.0560
    16.4441  17.5880  34.2792  35.7076

          k = 0.0000-0.1000 0.4000 (   872 PWs)   bands (ev):

   -69.4537 -35.5595 -35.4889 -35.4652  10.6795  15.3774  15.4349  16.2414
    16.6504  17.7250  30.9867  33.7406

          k = 0.0000-0.2000 0.5000 (   866 PWs)   bands (ev):

   -69.4401 -35.6376 -35.5184 -35.4626  12.1303  14.8967  15.1812  16.5578
    17.4505  18.0248  26.9310  32.0849

          k = 0.0000-0.3000 0.6000 (   860 PWs)   bands (ev):

   -69.4317 -35.6855 -35.5367 -35.4608  13.0058  14.7954  15.0225  16.6990
    18.0240  18.9504  23.7849  31.0796

          k =-0.1000-0.1000 0.5000 (   872 PWs)   bands (ev):

   -69.4406 -35.6095 -35.5239 -35.4806  11.9748  14.9029  15.4880  16.2811
    17.1936  18.0551  29.2582  29.6202

          k =-0.1000-0.2000 0.6000 (   864 PWs)   bands (ev):

   -69.4300 -35.6560 -35.5567 -35.4813  13.1236  14.4538  15.3015  16.6140
    17.6382  19.1777  25.5741  28.2782

          k =-0.1000 0.7000-0.3000 (   863 PWs)   bands (ev):

   -69.4259 -35.6743 -35.5695 -35.4808  13.5303  14.3915  15.1365  16.7129
    17.8682  20.5154  23.2934  27.8231

          k =-0.2000 0.8000-0.3000 (   872 PWs)   bands (ev):

   -69.4237 -35.6502 -35.6055 -35.4856  13.9072  14.1291  14.9901  17.0554
    17.5453  21.3203  24.3334  25.1366

          k =-0.3000 0.3000 0.3000 (   869 PWs)   bands (ev):

   -69.4469 -35.6383 -35.4688 -35.4688  12.0515  14.5179  14.5179  17.3564
    17.3564  18.4391  29.0247  29.0250

          k = 0.6000-0.6000 0.3000 (   867 PWs)   bands (ev):

   -69.4391 -35.6502 -35.5174 -35.4728  13.2780  14.3083  14.4212  17.3896
    17.5029  19.7595  25.5384  28.0708

          k = 0.5000-0.5000 0.3000 (   866 PWs)   bands (ev):

   -69.4361 -35.6463 -35.5444 -35.4742  13.5636  14.2400  14.6824  17.4164
    17.5476  20.9809  23.3413  27.7433

          k = 0.5000-0.6000 0.4000 (   870 PWs)   bands (ev):

   -69.4356 -35.6186 -35.5556 -35.4969  13.9407  14.2174  14.3360  17.4888
    17.5389  21.6924  24.4628  25.2028

          k = 0.0000 0.0000 0.5000 (   875 PWs)   bands (ev):

   -69.4412 -35.5675 -35.5201 -35.5201  11.7511  15.2229  15.8979  15.8979
    16.7256  17.9952  31.4668  31.4668

          k = 0.0000-0.1000 0.6000 (   868 PWs)   bands (ev):

   -69.4287 -35.6216 -35.5510 -35.5278  12.8532  14.5433  15.9380  16.3029
    17.3535  18.6775  27.7320  29.6454

          k = 0.0000-0.2000 0.7000 (   864 PWs)   bands (ev):

   -69.4209 -35.6632 -35.5701 -35.5239  13.5254  14.1097  15.8598  16.4747
    17.9421  20.3779  24.2358  28.5549

          k =-0.1000-0.1000 0.7000 (   861 PWs)   bands (ev):

   -69.4190 -35.6419 -35.5893 -35.5381  13.4726  14.0539  15.9813  16.8066
    17.6560  20.2330  26.3150  26.5547

          k =-0.1000 0.8000-0.2000 (   866 PWs)   bands (ev):

   -69.4153 -35.6505 -35.6081 -35.5376  13.7431  13.8040  15.8901  17.0843
    17.8049  22.2971  23.6502  25.9336

          k = 0.5000-0.5000 0.5000 (   868 PWs)   bands (ev):

   -69.4350 -35.5593 -35.5593 -35.5593  14.2034  14.2034  14.2034  17.5614
    17.5614  24.1064  24.1064  24.1064

          k = 0.0000 0.0000 0.7000 (   868 PWs)   bands (ev):

   -69.4172 -35.6145 -35.5833 -35.5833  13.2923  14.0420  16.7019  16.7019
    17.4126  19.7883  27.6522  27.6522

          k = 0.0000-0.1000 0.8000 (   859 PWs)   bands (ev):

   -69.4101 -35.6405 -35.6030 -35.5863  13.4660  13.6468  16.8993  17.0576
    17.8624  21.8728  24.9659  26.4267

          k =-0.1000 0.9000-0.1000 (   862 PWs)   bands (ev):

   -69.4067 -35.6308 -35.6308 -35.5916  13.4547  13.4547  16.9787  17.7339
    17.7339  24.0929  24.0929  24.6753

          k = 0.0000 0.0000 0.9000 (   856 PWs)   bands (ev):

   -69.4034 -35.6278 -35.6233 -35.6233  13.2949  13.3403  17.7049  17.7049
    17.8452  23.5953  25.0620  25.0620

     the Fermi energy is    15.4418 ev

!    total energy              =    -254.36292241 Ry
     estimated scf accuracy    <          3.3E-09 Ry
     smearing contrib. (-TS)   =       0.00164627 Ry
     internal energy E=F+TS    =    -254.36456867 Ry

     The total energy is F=E-TS. E is the sum of the following terms:
     one-electron contribution =    -123.21484410 Ry
     hartree contribution      =      70.00359201 Ry
     xc contribution           =     -34.78835889 Ry
     ewald contribution        =    -166.36495769 Ry

     total magnetization       =     2.55 Bohr mag/cell
     absolute magnetization    =     2.73 Bohr mag/cell

     convergence has been achieved in  10 iterations

     Writing output data file ./tempdir/fe.save/

     init_run     :      0.82s CPU      0.86s WALL (       1 calls)
     electrons    :      9.79s CPU     10.14s WALL (       1 calls)

     Called by init_run:
     wfcinit      :      0.25s CPU      0.25s WALL (       1 calls)
     potinit      :      0.11s CPU      0.11s WALL (       1 calls)
     hinit0       :      0.40s CPU      0.40s WALL (       1 calls)

     Called by electrons:
     c_bands      :      5.94s CPU      5.97s WALL (      10 calls)
     sum_band     :      2.21s CPU      2.37s WALL (      10 calls)
     v_of_rho     :      0.91s CPU      0.96s WALL (      11 calls)
     newd         :      0.73s CPU      0.88s WALL (      11 calls)
     mix_rho      :      0.07s CPU      0.07s WALL (      10 calls)

     Called by c_bands:
     init_us_2    :      0.14s CPU      0.14s WALL (     924 calls)
     cegterg      :      5.24s CPU      5.27s WALL (     440 calls)

     Called by *egterg:
     cdiaghg      :      0.18s CPU      0.18s WALL (    1653 calls)
     h_psi        :      4.79s CPU      4.82s WALL (    1697 calls)
     s_psi        :      0.07s CPU      0.07s WALL (    1697 calls)
     g_psi        :      0.03s CPU      0.03s WALL (    1213 calls)

     Called by h_psi:
     h_psi:calbec :      0.08s CPU      0.08s WALL (    1697 calls)
     vloc_psi     :      4.62s CPU      4.65s WALL (    1697 calls)
     add_vuspsi   :      0.07s CPU      0.07s WALL (    1697 calls)

     General routines
     calbec       :      0.11s CPU      0.11s WALL (    2137 calls)
     fft          :      0.39s CPU      0.39s WALL (     269 calls)
     ffts         :      0.01s CPU      0.01s WALL (      42 calls)
     fftw         :      5.07s CPU      5.10s WALL (   33570 calls)
     interpolate  :      0.04s CPU      0.04s WALL (      22 calls)

     Parallel routines

     PWSCF        :     10.69s CPU     11.09s WALL


   This run was terminated on:   0:19:24  19Apr2021            

=------------------------------------------------------------------------------=
   JOB DONE.
=------------------------------------------------------------------------------=
