
     Program PWSCF v.6.7GPU starts on 19Apr2021 at  0:17:32 

     This program is part of the open-source Quantum ESPRESSO suite
     for quantum simulation of materials; please cite
         "P. Giannozzi et al., J. Phys.:Condens. Matter 21 395502 (2009);
         "P. Giannozzi et al., J. Phys.:Condens. Matter 29 465901 (2017);
         "P. Giannozzi et al., J. Chem. Phys. 152 154105 (2020);
          URL http://www.quantum-espresso.org", 
     in publications or presentations arising from this work. More details at
     http://www.quantum-espresso.org/quote

     Parallel version (MPI & OpenMP), running on       2 processor cores
     Number of MPI processes:                 2
     Threads/MPI process:                     1

     MPI processes distributed on     1 nodes
     K-points division:     npool     =       2
     Reading input from fe.scf.4.6.in

     Current dimensions of program PWSCF are:
     Max number of different atomic species (ntypx) = 10
     Max number of k-points (npk) =  40000
     Max angular momentum in pseudopotentials (lmaxx) =  3

     Subspace diagonalization in iterative solution of the eigenvalue problem:
     a serial algorithm will be used


     G-vector sticks info
     --------------------
     sticks:   dense  smooth     PW     G-vecs:    dense   smooth      PW
     Sum        1019     337    103                20377     3925     683

     Using Slab Decomposition



     bravais-lattice index     =            3
     lattice parameter (alat)  =       4.6000  a.u.
     unit-cell volume          =      48.6680 (a.u.)^3
     number of atoms/cell      =            1
     number of atomic types    =            1
     number of electrons       =        16.00
     number of Kohn-Sham states=           12
     kinetic-energy cutoff     =      70.0000  Ry
     charge density cutoff     =     850.0000  Ry
     scf convergence threshold =      1.0E-08
     mixing beta               =       0.7000
     number of iterations used =            8  plain     mixing
     Exchange-correlation= PBE
                           (   1   4   3   4   0   0   0)

     celldm(1)=   4.600000  celldm(2)=   0.000000  celldm(3)=   0.000000
     celldm(4)=   0.000000  celldm(5)=   0.000000  celldm(6)=   0.000000

     crystal axes: (cart. coord. in units of alat)
               a(1) = (   0.500000   0.500000   0.500000 )  
               a(2) = (  -0.500000   0.500000   0.500000 )  
               a(3) = (  -0.500000  -0.500000   0.500000 )  

     reciprocal axes: (cart. coord. in units 2 pi/alat)
               b(1) = (  1.000000  0.000000  1.000000 )  
               b(2) = ( -1.000000  1.000000  0.000000 )  
               b(3) = (  0.000000 -1.000000  1.000000 )  


     PseudoPot. # 1 for Fe read from file:
     /home/pietro/repositories/materials-for-max-qe2021-online-school/pseudo/Fe.pbe-spn-rrkjus_psl.0.2.1.UPF
     MD5 check sum: f9af58635850a145d9bd408d58feeb93
     Pseudo is Ultrasoft + core correction, Zval = 16.0
     Generated using "atomic" code by A. Dal Corso  v.5.0.2 svn rev. 9415
     Using radial grid of 1191 points,  6 beta functions with: 
                l(1) =   0
                l(2) =   0
                l(3) =   1
                l(4) =   1
                l(5) =   2
                l(6) =   2
     Q(r) pseudized with 0 coefficients 


     atomic species   valence    mass     pseudopotential
        Fe            16.00    55.84500     Fe( 1.00)

     Starting magnetic structure 
     atomic species   magnetization
        Fe           0.700

     48 Sym. Ops., with inversion, found



   Cartesian axes

     site n.     atom                  positions (alat units)
         1           Fe  tau(   1) = (   0.0000000   0.0000000   0.0000000  )

     number of k points=    44  Marzari-Vanderbilt smearing, width (Ry)=  0.0200
                       cart. coord. in units 2pi/alat
        k(    1) = (   0.0000000   0.0000000   0.1000000), wk =   0.0060000
        k(    2) = (   0.0000000  -0.1000000   0.2000000), wk =   0.0240000
        k(    3) = (   0.0000000  -0.2000000   0.3000000), wk =   0.0240000
        k(    4) = (   0.0000000  -0.3000000   0.4000000), wk =   0.0240000
        k(    5) = (   0.0000000  -0.4000000   0.5000000), wk =   0.0240000
        k(    6) = (  -0.1000000   0.1000000   0.1000000), wk =   0.0080000
        k(    7) = (  -0.1000000  -0.1000000   0.3000000), wk =   0.0240000
        k(    8) = (  -0.1000000  -0.2000000   0.4000000), wk =   0.0480000
        k(    9) = (  -0.1000000  -0.3000000   0.5000000), wk =   0.0480000
        k(   10) = (  -0.1000000   0.6000000  -0.4000000), wk =   0.0240000
        k(   11) = (  -0.2000000   0.2000000   0.1000000), wk =   0.0240000
        k(   12) = (  -0.2000000  -0.2000000   0.5000000), wk =   0.0240000
        k(   13) = (  -0.2000000   0.7000000  -0.4000000), wk =   0.0480000
        k(   14) = (  -0.3000000   0.3000000   0.1000000), wk =   0.0240000
        k(   15) = (  -0.3000000   0.2000000   0.2000000), wk =   0.0240000
        k(   16) = (  -0.3000000   0.7000000  -0.3000000), wk =   0.0080000
        k(   17) = (  -0.4000000   0.4000000   0.1000000), wk =   0.0240000
        k(   18) = (  -0.4000000   0.3000000   0.2000000), wk =   0.0480000
        k(   19) = (   0.5000000  -0.5000000   0.1000000), wk =   0.0120000
        k(   20) = (   0.5000000  -0.6000000   0.2000000), wk =   0.0480000
        k(   21) = (   0.5000000  -0.7000000   0.3000000), wk =   0.0240000
        k(   22) = (   0.4000000  -0.6000000   0.3000000), wk =   0.0240000
        k(   23) = (   0.0000000   0.0000000   0.3000000), wk =   0.0060000
        k(   24) = (   0.0000000  -0.1000000   0.4000000), wk =   0.0240000
        k(   25) = (   0.0000000  -0.2000000   0.5000000), wk =   0.0240000
        k(   26) = (   0.0000000  -0.3000000   0.6000000), wk =   0.0240000
        k(   27) = (  -0.1000000  -0.1000000   0.5000000), wk =   0.0240000
        k(   28) = (  -0.1000000  -0.2000000   0.6000000), wk =   0.0480000
        k(   29) = (  -0.1000000   0.7000000  -0.3000000), wk =   0.0240000
        k(   30) = (  -0.2000000   0.8000000  -0.3000000), wk =   0.0240000
        k(   31) = (  -0.3000000   0.3000000   0.3000000), wk =   0.0080000
        k(   32) = (   0.6000000  -0.6000000   0.3000000), wk =   0.0240000
        k(   33) = (   0.5000000  -0.5000000   0.3000000), wk =   0.0120000
        k(   34) = (   0.5000000  -0.6000000   0.4000000), wk =   0.0240000
        k(   35) = (   0.0000000   0.0000000   0.5000000), wk =   0.0060000
        k(   36) = (   0.0000000  -0.1000000   0.6000000), wk =   0.0240000
        k(   37) = (   0.0000000  -0.2000000   0.7000000), wk =   0.0240000
        k(   38) = (  -0.1000000  -0.1000000   0.7000000), wk =   0.0240000
        k(   39) = (  -0.1000000   0.8000000  -0.2000000), wk =   0.0240000
        k(   40) = (   0.5000000  -0.5000000   0.5000000), wk =   0.0020000
        k(   41) = (   0.0000000   0.0000000   0.7000000), wk =   0.0060000
        k(   42) = (   0.0000000  -0.1000000   0.8000000), wk =   0.0240000
        k(   43) = (  -0.1000000   0.9000000  -0.1000000), wk =   0.0080000
        k(   44) = (   0.0000000   0.0000000   0.9000000), wk =   0.0060000

     Dense  grid:    20377 G-vectors     FFT dimensions: (  40,  40,  40)

     Smooth grid:     3925 G-vectors     FFT dimensions: (  24,  24,  24)

     Estimated max dynamical RAM per process >      57.37 MB

     Estimated total dynamical RAM >     104.80 MB

     Check: negative core charge=   -0.000013
     Generating pointlists ...
     new r_m :   0.3572 (alat units)  1.6433 (a.u.) for type    1

     Initial potential from superposition of free atoms

     starting charge   15.99956, renormalised to   16.00000
     Starting wfcs are   13 randomized atomic wfcs

     total cpu time spent up to now is        0.7 secs

     Self-consistent Calculation

     iteration #  1     ecut=    70.00 Ry     beta= 0.70
     Davidson diagonalization with overlap
     ethr =  1.00E-02,  avg # of iterations =  4.3

     negative rho (up, down):  0.000E+00 2.082E-05

     total cpu time spent up to now is        1.3 secs

     total energy              =    -253.86074412 Ry
     estimated scf accuracy    <       1.71581749 Ry

     total magnetization       =     3.37 Bohr mag/cell
     absolute magnetization    =     3.37 Bohr mag/cell

     iteration #  2     ecut=    70.00 Ry     beta= 0.70
     Davidson diagonalization with overlap
     ethr =  1.00E-02,  avg # of iterations =  1.0

     negative rho (up, down):  0.000E+00 1.824E-05

     total cpu time spent up to now is        1.8 secs

     total energy              =    -254.14135097 Ry
     estimated scf accuracy    <       0.29812926 Ry

     total magnetization       =     2.52 Bohr mag/cell
     absolute magnetization    =     2.59 Bohr mag/cell

     iteration #  3     ecut=    70.00 Ry     beta= 0.70
     Davidson diagonalization with overlap
     ethr =  1.86E-03,  avg # of iterations =  1.8

     negative rho (up, down):  0.000E+00 9.944E-06

     total cpu time spent up to now is        2.3 secs

     total energy              =    -254.18580697 Ry
     estimated scf accuracy    <       0.09853760 Ry

     total magnetization       =     1.66 Bohr mag/cell
     absolute magnetization    =     1.73 Bohr mag/cell

     iteration #  4     ecut=    70.00 Ry     beta= 0.70
     Davidson diagonalization with overlap
     ethr =  6.16E-04,  avg # of iterations =  2.0

     total cpu time spent up to now is        2.8 secs

     total energy              =    -254.20298092 Ry
     estimated scf accuracy    <       0.00644840 Ry

     total magnetization       =     1.51 Bohr mag/cell
     absolute magnetization    =     1.58 Bohr mag/cell

     iteration #  5     ecut=    70.00 Ry     beta= 0.70
     Davidson diagonalization with overlap
     ethr =  4.03E-05,  avg # of iterations =  2.8

     total cpu time spent up to now is        3.4 secs

     total energy              =    -254.20683538 Ry
     estimated scf accuracy    <       0.00059001 Ry

     total magnetization       =     1.33 Bohr mag/cell
     absolute magnetization    =     1.37 Bohr mag/cell

     iteration #  6     ecut=    70.00 Ry     beta= 0.70
     Davidson diagonalization with overlap
     ethr =  3.69E-06,  avg # of iterations =  3.0

     total cpu time spent up to now is        4.0 secs

     total energy              =    -254.20722944 Ry
     estimated scf accuracy    <       0.00009474 Ry

     total magnetization       =     1.26 Bohr mag/cell
     absolute magnetization    =     1.29 Bohr mag/cell

     iteration #  7     ecut=    70.00 Ry     beta= 0.70
     Davidson diagonalization with overlap
     ethr =  5.92E-07,  avg # of iterations =  2.3

     total cpu time spent up to now is        4.5 secs

     total energy              =    -254.20728933 Ry
     estimated scf accuracy    <       0.00001056 Ry

     total magnetization       =     1.24 Bohr mag/cell
     absolute magnetization    =     1.27 Bohr mag/cell

     iteration #  8     ecut=    70.00 Ry     beta= 0.70
     Davidson diagonalization with overlap
     ethr =  6.60E-08,  avg # of iterations =  2.2

     total cpu time spent up to now is        5.1 secs

     total energy              =    -254.20729343 Ry
     estimated scf accuracy    <       0.00000039 Ry

     total magnetization       =     1.24 Bohr mag/cell
     absolute magnetization    =     1.26 Bohr mag/cell

     iteration #  9     ecut=    70.00 Ry     beta= 0.70
     Davidson diagonalization with overlap
     ethr =  2.45E-09,  avg # of iterations =  3.4

     total cpu time spent up to now is        5.7 secs

     total energy              =    -254.20729355 Ry
     estimated scf accuracy    <       0.00000008 Ry

     total magnetization       =     1.24 Bohr mag/cell
     absolute magnetization    =     1.26 Bohr mag/cell

     iteration # 10     ecut=    70.00 Ry     beta= 0.70
     Davidson diagonalization with overlap
     ethr =  4.92E-10,  avg # of iterations =  2.3

     Magnetic moment per site  (integrated on atomic sphere of radius R)
     atom   1 (R=0.357)  charge= 14.0113  magn=  1.2232

     total cpu time spent up to now is        6.2 secs

     End of self-consistent calculation

 ------ SPIN UP ------------


          k = 0.0000 0.0000 0.1000 (   479 PWs)   bands (ev):

   -57.5864 -22.6195 -22.5805 -22.5805  20.3310  27.7690  27.7690  27.8841
    30.0702  30.3706  59.6025  60.8025

          k = 0.0000-0.1000 0.2000 (   481 PWs)   bands (ev):

   -57.4993 -22.9464 -22.6841 -22.5936  21.4535  27.3735  27.6693  28.6904
    29.6246  30.5204  57.0565  59.7865

          k = 0.0000-0.2000 0.3000 (   478 PWs)   bands (ev):

   -57.3564 -23.4789 -22.8485 -22.5980  23.0288  26.7174  27.5199  29.6786
    30.1629  30.7105  52.9814  57.2708

          k = 0.0000-0.3000 0.4000 (   479 PWs)   bands (ev):

   -57.2112 -23.9981 -23.0100 -22.6019  23.5095  26.1038  28.5764  30.2339
    31.1886  31.8186  48.2992  55.0038

          k = 0.0000-0.4000 0.5000 (   483 PWs)   bands (ev):

   -57.1203 -24.3125 -23.1087 -22.6046  23.2323  25.7435  29.6750  30.3933
    32.7528  32.9694  44.6219  53.6965

          k =-0.1000 0.1000 0.1000 (   486 PWs)   bands (ev):

   -57.5421 -22.8397 -22.5847 -22.5847  20.9129  27.4949  27.4949  28.5482
    30.1601  30.1601  58.9003  58.9003

          k =-0.1000-0.1000 0.3000 (   482 PWs)   bands (ev):

   -57.3861 -23.3088 -22.8056 -22.6682  22.8329  27.1538  27.2398  29.2309
    29.8050  30.8781  54.7393  57.0888

          k =-0.1000-0.2000 0.4000 (   481 PWs)   bands (ev):

   -57.2442 -23.7673 -23.0000 -22.6915  24.0068  26.4501  27.2679  29.5517
    31.0009  31.9825  50.8628  54.2426

          k =-0.1000-0.3000 0.5000 (   476 PWs)   bands (ev):

   -57.1276 -24.1317 -23.1661 -22.6971  23.9002  26.0980  27.9792  30.0794
    31.7230  34.2982  46.3715  52.6060

          k =-0.1000 0.6000-0.4000 (   475 PWs)   bands (ev):

   -57.0827 -24.2695 -23.2295 -22.6987  23.6836  25.9735  28.3745  30.1611
    32.2679  35.8584  43.9686  52.0140

          k =-0.2000 0.2000 0.1000 (   486 PWs)   bands (ev):

   -57.4253 -23.2775 -22.7246 -22.5936  22.4106  26.8693  27.1677  29.8765
    29.9626  30.3436  55.1571  57.2007

          k =-0.2000-0.2000 0.5000 (   478 PWs)   bands (ev):

   -57.1306 -23.9866 -23.2540 -22.7469  24.7910  25.7690  27.2859  29.8194
    31.3276  34.8131  48.4917  50.1490

          k =-0.2000 0.7000-0.4000 (   479 PWs)   bands (ev):

   -57.0598 -24.0761 -23.4732 -22.7638  24.7102  25.9227  27.0718  30.3011
    31.5771  38.0166  44.6883  48.5295

          k =-0.3000 0.3000 0.1000 (   483 PWs)   bands (ev):

   -57.2786 -23.7812 -22.9193 -22.6047  23.6388  26.2034  27.5813  30.1291
    30.5430  31.7169  50.5986  55.0692

          k =-0.3000 0.2000 0.2000 (   485 PWs)   bands (ev):

   -57.3043 -23.6710 -22.8416 -22.6779  23.9357  26.3816  26.5346  30.0127
    30.5749  31.8310  52.6001  53.9098

          k =-0.3000 0.7000-0.3000 (   484 PWs)   bands (ev):

   -57.0339 -23.8280 -23.8280 -22.7806  25.4482  26.0398  26.0398  31.0073
    31.0073  41.9608  41.9608  46.4565

          k =-0.4000 0.4000 0.1000 (   482 PWs)   bands (ev):

   -57.1582 -24.1756 -23.0787 -22.6140  23.5337  25.7185  29.5382  30.4531
    30.7164  33.6373  46.1830  53.3808

          k =-0.4000 0.3000 0.2000 (   488 PWs)   bands (ev):

   -57.1819 -23.9899 -23.0726 -22.7179  24.4864  25.8604  27.3053  30.2486
    30.8248  34.2370  48.4874  51.7340

          k = 0.5000-0.5000 0.1000 (   488 PWs)   bands (ev):

   -57.1118 -24.3244 -23.1400 -22.6176  23.3353  25.5429  30.5209  30.7384
    30.7892  34.7426  43.9842  52.7484

          k = 0.5000-0.6000 0.2000 (   485 PWs)   bands (ev):

   -57.1054 -24.1602 -23.2465 -22.7345  24.1599  25.6175  28.5670  30.5187
    31.0160  36.6285  44.6264  50.6454

          k = 0.5000-0.7000 0.3000 (   482 PWs)   bands (ev):

   -57.1031 -24.0168 -23.3525 -22.7977  24.9377  25.8070  27.2089  30.4748
    31.0045  37.3970  46.1399  48.2452

          k = 0.4000-0.6000 0.3000 (   482 PWs)   bands (ev):

   -57.0729 -23.9479 -23.5477 -22.8204  24.9151  25.9383  27.2324  30.6863
    30.9929  39.9636  43.4369  47.2776

          k = 0.0000 0.0000 0.3000 (   490 PWs)   bands (ev):

   -57.4172 -23.0454 -22.7921 -22.7921  22.4526  27.8636  27.8636  28.5122
    28.6937  31.0312  56.0238  60.1156

          k = 0.0000-0.1000 0.4000 (   478 PWs)   bands (ev):

   -57.2827 -23.4622 -22.9622 -22.8428  23.8279  27.0829  27.5391  28.7293
    29.9660  31.6620  53.4726  56.9053

          k = 0.0000-0.2000 0.5000 (   480 PWs)   bands (ev):

   -57.1462 -23.9252 -23.1299 -22.8372  24.2284  26.7672  27.0324  29.5307
    31.6547  33.1672  48.8696  54.9459

          k = 0.0000-0.3000 0.6000 (   480 PWs)   bands (ev):

   -57.0607 -24.2098 -23.2320 -22.8298  23.8464  26.7216  27.1818  29.6978
    32.8561  35.6876  44.7786  54.0041

          k =-0.1000-0.1000 0.5000 (   481 PWs)   bands (ev):

   -57.1534 -23.7544 -23.1739 -22.9279  24.7011  25.9788  27.8142  29.0221
    31.0232  33.2259  51.3751  52.8747

          k =-0.1000-0.2000 0.6000 (   478 PWs)   bands (ev):

   -57.0474 -24.0207 -23.3700 -22.9329  24.5879  25.7810  27.4006  29.7244
    32.0014  36.1753  47.0199  50.7561

          k =-0.1000 0.7000-0.3000 (   478 PWs)   bands (ev):

   -57.0065 -24.1250 -23.4458 -22.9296  24.2767  26.1180  27.0346  29.9243
    32.5177  38.5633  44.0159  50.1087

          k =-0.2000 0.8000-0.3000 (   478 PWs)   bands (ev):

   -56.9859 -23.9675 -23.6773 -22.9444  24.9691  25.2447  26.9039  30.7384
    31.8087  40.0800  44.7235  47.0559

          k =-0.3000 0.3000 0.3000 (   489 PWs)   bands (ev):

   -57.2026 -23.9253 -22.8870 -22.8870  25.5113  25.8646  25.8646  30.5205
    30.5205  34.3197  50.6768  50.6768

          k = 0.6000-0.6000 0.3000 (   488 PWs)   bands (ev):

   -57.1196 -24.0078 -23.1819 -22.9236  25.1975  25.5984  27.1705  30.6530
    30.7682  37.1554  46.6304  49.3594

          k = 0.5000-0.5000 0.3000 (   486 PWs)   bands (ev):

   -57.0878 -23.9935 -23.3408 -22.9376  24.9647  25.5212  27.8627  30.7377
    30.8371  39.2212  43.9052  48.8898

          k = 0.5000-0.6000 0.4000 (   485 PWs)   bands (ev):

   -57.0812 -23.8207 -23.4320 -23.0719  25.3928  26.0116  26.8604  30.7958
    30.8573  40.5364  44.6060  46.7468

          k = 0.0000 0.0000 0.5000 (   486 PWs)   bands (ev):

   -57.1622 -23.5231 -23.1434 -23.1434  24.6326  26.1661  28.6052  28.6052
    30.0633  32.9678  53.9216  55.5709

          k = 0.0000-0.1000 0.6000 (   482 PWs)   bands (ev):

   -57.0400 -23.8123 -23.3205 -23.2042  24.6831  25.1858  28.6635  29.3539
    31.4274  35.2487  49.9867  53.0385

          k = 0.0000-0.2000 0.7000 (   476 PWs)   bands (ev):

   -56.9636 -24.0410 -23.4279 -23.1872  24.0972  25.1027  28.4893  29.7017
    32.6751  38.5697  45.2642  51.4175

          k =-0.1000-0.1000 0.7000 (   476 PWs)   bands (ev):

   -56.9472 -23.9084 -23.5538 -23.2545  24.2719  24.4798  28.8163  30.4239
    32.0885  38.4492  47.7964  48.7134

          k =-0.1000 0.8000-0.2000 (   475 PWs)   bands (ev):

   -56.9116 -23.9433 -23.6699 -23.2467  23.9703  24.3387  28.7103  30.9827
    32.4112  41.6394  44.3040  47.6361

          k = 0.5000-0.5000 0.5000 (   484 PWs)   bands (ev):

   -57.0730 -23.4624 -23.4624 -23.4624  26.1304  26.1304  26.1304  30.8668
    30.8668  44.0760  44.0760  44.0760

          k = 0.0000 0.0000 0.7000 (   482 PWs)   bands (ev):

   -56.9325 -23.7534 -23.5068 -23.5068  24.0331  24.1722  30.2894  30.2894
    31.5133  37.7856  50.0549  50.0549

          k = 0.0000-0.1000 0.8000 (   480 PWs)   bands (ev):

   -56.8655 -23.8702 -23.6206 -23.5351  23.4252  23.6367  30.6200  31.0194
    32.4990  41.2341  46.0734  48.1424

          k =-0.1000 0.9000-0.1000 (   478 PWs)   bands (ev):

   -56.8342 -23.7942 -23.7942 -23.5527  23.2023  23.2023  30.8282  32.2740
    32.2740  44.4950  44.4950  45.8372

          k = 0.0000 0.0000 0.9000 (   486 PWs)   bands (ev):

   -56.8045 -23.7727 -23.7372 -23.7372  22.8114  22.8671  32.2170  32.2170
    32.4529  43.8439  45.9856  45.9856

 ------ SPIN DOWN ----------


          k = 0.0000 0.0000 0.1000 (   479 PWs)   bands (ev):

   -56.0343 -21.0564 -21.0151 -21.0151  20.5451  28.7049  28.7049  28.8279
    31.8982  32.2364  59.6726  60.7869

          k = 0.0000-0.1000 0.2000 (   481 PWs)   bands (ev):

   -55.9435 -21.4010 -21.1235 -21.0289  21.6846  28.2844  28.6055  29.6577
    31.3570  32.3905  57.3628  59.9101

          k = 0.0000-0.2000 0.3000 (   478 PWs)   bands (ev):

   -55.7945 -21.9608 -21.2953 -21.0335  23.3673  27.5908  28.4378  31.1785
    31.2381  32.5720  53.5038  57.4640

          k = 0.0000-0.3000 0.4000 (   479 PWs)   bands (ev):

   -55.6429 -22.5054 -21.4640 -21.0376  24.1386  26.9454  29.3999  31.6579
    32.8970  32.8998  48.9744  55.1823

          k = 0.0000-0.4000 0.5000 (   483 PWs)   bands (ev):

   -55.5478 -22.8347 -21.5669 -21.0404  23.9873  26.5676  30.8324  31.9225
    33.7886  34.0989  45.4442  53.8463

          k =-0.1000 0.1000 0.1000 (   486 PWs)   bands (ev):

   -55.9882 -21.2882 -21.0195 -21.0195  21.1329  28.4208  28.4208  29.5085
    31.9871  31.9871  59.0723  59.0723

          k =-0.1000-0.1000 0.3000 (   482 PWs)   bands (ev):

   -55.8254 -21.7820 -21.2508 -21.1070  23.1167  28.1146  28.1405  30.7945
    30.8045  32.7401  55.2073  57.3849

          k =-0.1000-0.2000 0.4000 (   481 PWs)   bands (ev):

   -55.6773 -22.2631 -21.4544 -21.1315  24.5061  27.3872  28.1311  30.9700
    32.3927  33.3757  51.4665  54.5990

          k =-0.1000-0.3000 0.5000 (   476 PWs)   bands (ev):

   -55.5556 -22.6450 -21.6281 -21.1374  24.6505  26.9496  28.9512  31.5054
    33.1314  35.3255  47.1019  52.9688

          k =-0.1000 0.6000-0.4000 (   475 PWs)   bands (ev):

   -55.5087 -22.7892 -21.6944 -21.1391  24.4863  26.8036  29.4645  31.6455
    33.5492  36.7325  44.8033  52.3703

          k =-0.2000 0.2000 0.1000 (   486 PWs)   bands (ev):

   -55.8663 -21.7488 -21.1659 -21.0288  22.6662  27.7612  28.0919  30.8760
    31.6664  32.1828  55.5640  57.4611

          k =-0.2000-0.2000 0.5000 (   478 PWs)   bands (ev):

   -55.5587 -22.4925 -21.7216 -21.1892  25.4574  26.7948  28.0984  31.2001
    32.8431  35.8517  49.1847  50.6009

          k =-0.2000 0.7000-0.4000 (   479 PWs)   bands (ev):

   -55.4848 -22.5860 -21.9518 -21.2067  25.5295  26.8283  28.0502  31.6983
    32.9609  38.8916  45.4518  49.0354

          k =-0.3000 0.3000 0.1000 (   483 PWs)   bands (ev):

   -55.7132 -22.2777 -21.3696 -21.0405  24.1112  27.0538  28.3323  31.7445
    32.4115  32.7189  51.1816  55.3208

          k =-0.3000 0.2000 0.2000 (   485 PWs)   bands (ev):

   -55.7400 -22.1617 -21.2890 -21.1172  24.2735  27.3006  27.3610  31.6891
    32.3903  32.8354  53.0952  54.2860

          k =-0.3000 0.7000-0.3000 (   484 PWs)   bands (ev):

   -55.4577 -22.3249 -22.3249 -21.2240  26.2012  27.0445  27.0445  32.3781
    32.3781  42.7549  42.7549  47.0095

          k =-0.4000 0.4000 0.1000 (   482 PWs)   bands (ev):

   -55.5873 -22.6913 -21.5361 -21.0503  24.2401  26.5391  30.1102  32.0142
    32.6183  34.5808  46.9171  53.5879

          k =-0.4000 0.3000 0.2000 (   488 PWs)   bands (ev):

   -55.6121 -22.4961 -21.5311 -21.1592  25.1199  26.7066  27.9734  31.8806
    32.6557  35.1770  49.1033  52.1270

          k = 0.5000-0.5000 0.1000 (   488 PWs)   bands (ev):

   -55.5388 -22.8471 -21.6001 -21.0541  24.0892  26.3530  31.2657  32.1233
    32.7066  35.5702  44.8281  52.9332

          k = 0.5000-0.6000 0.2000 (   485 PWs)   bands (ev):

   -55.5321 -22.6748 -21.7132 -21.1768  24.9109  26.4207  29.2940  32.1451
    32.7912  37.4260  45.3827  51.0212

          k = 0.5000-0.7000 0.3000 (   482 PWs)   bands (ev):

   -55.5297 -22.5241 -21.8258 -21.2428  25.6539  26.6779  27.9127  32.1100
    32.7613  38.2345  46.7966  48.7380

          k = 0.4000-0.6000 0.3000 (   482 PWs)   bands (ev):

   -55.4981 -22.4518 -22.0308 -21.2666  25.6529  26.7668  28.0407  32.3369
    32.6886  40.6934  44.1671  47.7951

          k = 0.0000 0.0000 0.3000 (   490 PWs)   bands (ev):

   -55.8580 -21.5062 -21.2365 -21.2365  22.7166  28.7756  28.7756  29.6633
    30.1462  32.9086  56.4476  60.3580

          k = 0.0000-0.1000 0.4000 (   478 PWs)   bands (ev):

   -55.7177 -21.9435 -21.4145 -21.2902  24.2262  28.2929  28.4312  29.9265
    30.9731  33.4314  54.0542  57.2284

          k = 0.0000-0.2000 0.5000 (   480 PWs)   bands (ev):

   -55.5751 -22.4285 -21.5898 -21.2846  24.9480  27.8926  27.8989  30.7592
    32.7249  34.5501  49.5417  55.3195

          k = 0.0000-0.3000 0.6000 (   480 PWs)   bands (ev):

   -55.4859 -22.7263 -21.6965 -21.2769  24.7151  27.5731  28.3253  31.0276
    33.9808  36.6738  45.5711  54.3831

          k =-0.1000-0.1000 0.5000 (   481 PWs)   bands (ev):

   -55.5827 -22.2495 -21.6367 -21.3792  25.3210  27.2065  28.7108  30.1270
    32.1482  34.6276  52.0641  53.2902

          k =-0.1000-0.2000 0.6000 (   478 PWs)   bands (ev):

   -55.4721 -22.5277 -21.8424 -21.3843  25.5133  26.8611  28.3239  30.8885
    33.1713  37.2019  47.7307  51.2651

          k =-0.1000 0.7000-0.3000 (   478 PWs)   bands (ev):

   -55.4294 -22.6366 -21.9218 -21.3809  25.2612  27.2524  27.9069  31.1224
    33.6756  39.4320  44.8059  50.6180

          k =-0.2000 0.8000-0.3000 (   478 PWs)   bands (ev):

   -55.4079 -22.4709 -22.1656 -21.3959  26.0988  26.2797  27.7704  31.8831
    32.9824  40.9384  45.5066  47.5763

          k =-0.3000 0.3000 0.3000 (   489 PWs)   bands (ev):

   -55.6336 -22.4280 -21.3370 -21.3370  25.9035  26.7040  26.7040  32.3176
    32.3176  35.2522  51.1567  51.1567

          k = 0.6000-0.6000 0.3000 (   488 PWs)   bands (ev):

   -55.5469 -22.5146 -21.6466 -21.3758  25.9286  26.3795  27.7756  32.4223
    32.6575  37.9692  47.2345  49.8082

          k = 0.5000-0.5000 0.3000 (   486 PWs)   bands (ev):

   -55.5137 -22.4999 -21.8130 -21.3906  25.7064  26.2806  28.5149  32.4990
    32.7615  39.8993  44.6258  49.3233

          k = 0.5000-0.6000 0.4000 (   485 PWs)   bands (ev):

   -55.5067 -22.3182 -21.9100 -21.5315  26.1201  26.7645  27.5315  32.6383
    32.7500  41.2247  45.2110  47.2749

          k = 0.0000 0.0000 0.5000 (   486 PWs)   bands (ev):

   -55.5920 -22.0080 -21.6044 -21.6044  25.2411  27.5623  29.5143  29.5143
    31.0802  34.4797  54.6460  56.0018

          k = 0.0000-0.1000 0.6000 (   482 PWs)   bands (ev):

   -55.4645 -22.3095 -21.7898 -21.6690  25.6063  26.4069  29.5764  30.3545
    32.4886  36.3752  50.6158  53.4747

          k = 0.0000-0.2000 0.7000 (   476 PWs)   bands (ev):

   -55.3848 -22.5480 -21.9022 -21.6515  25.1834  26.2419  29.3962  30.7536
    33.7923  39.4311  45.9685  51.8299

          k =-0.1000-0.1000 0.7000 (   476 PWs)   bands (ev):

   -55.3678 -22.4088 -22.0349 -21.7212  25.4740  25.5352  29.7350  31.4337
    33.1908  39.3122  48.4646  49.1800

          k =-0.1000 0.8000-0.2000 (   475 PWs)   bands (ev):

   -55.3306 -22.4446 -22.1569 -21.7129  25.1171  25.4835  29.6057  32.0302
    33.5236  42.3875  44.9847  48.1310

          k = 0.5000-0.5000 0.5000 (   484 PWs)   bands (ev):

   -55.4981 -21.9422 -21.9422 -21.9422  26.8337  26.8337  26.8337  32.7956
    32.7956  44.6565  44.6565  44.6565

          k = 0.0000 0.0000 0.7000 (   482 PWs)   bands (ev):

   -55.3526 -22.2470 -21.9851 -21.9851  25.2227  25.2599  31.2529  31.2529
    32.5854  38.6381  50.4715  50.4715

          k = 0.0000-0.1000 0.8000 (   480 PWs)   bands (ev):

   -55.2828 -22.3674 -22.1042 -22.0153  24.5904  24.7665  31.6121  32.0242
    33.6093  41.8920  46.5884  48.5161

          k =-0.1000 0.9000-0.1000 (   478 PWs)   bands (ev):

   -55.2500 -22.2868 -22.2868 -22.0333  24.3485  24.3485  31.8216  33.3644
    33.3644  45.0149  45.0149  46.2269

          k = 0.0000 0.0000 0.9000 (   486 PWs)   bands (ev):

   -55.2191 -22.2641 -22.2264 -22.2264  23.9573  24.0008  33.3004  33.3004
    33.5640  44.2658  46.2910  46.2910

     the Fermi energy is    31.1664 ev

!    total energy              =    -254.20729372 Ry
     estimated scf accuracy    <          8.5E-09 Ry
     smearing contrib. (-TS)   =       0.00089763 Ry
     internal energy E=F+TS    =    -254.20819135 Ry

     The total energy is F=E-TS. E is the sum of the following terms:
     one-electron contribution =     -67.02201754 Ry
     hartree contribution      =      50.60941029 Ry
     xc contribution           =     -35.26433126 Ry
     ewald contribution        =    -202.53125284 Ry

     total magnetization       =     1.23 Bohr mag/cell
     absolute magnetization    =     1.26 Bohr mag/cell

     convergence has been achieved in  10 iterations

     Writing output data file ./tempdir/fe.save/

     init_run     :      0.63s CPU      0.64s WALL (       1 calls)
     electrons    :      5.45s CPU      5.51s WALL (       1 calls)

     Called by init_run:
     wfcinit      :      0.15s CPU      0.15s WALL (       1 calls)
     potinit      :      0.05s CPU      0.06s WALL (       1 calls)
     hinit0       :      0.39s CPU      0.39s WALL (       1 calls)

     Called by electrons:
     c_bands      :      3.26s CPU      3.29s WALL (      10 calls)
     sum_band     :      1.23s CPU      1.25s WALL (      10 calls)
     v_of_rho     :      0.56s CPU      0.57s WALL (      11 calls)
     newd         :      0.38s CPU      0.39s WALL (      11 calls)
     mix_rho      :      0.04s CPU      0.04s WALL (      10 calls)

     Called by c_bands:
     init_us_2    :      0.08s CPU      0.08s WALL (     924 calls)
     cegterg      :      2.86s CPU      2.89s WALL (     440 calls)

     Called by *egterg:
     cdiaghg      :      0.15s CPU      0.15s WALL (    1521 calls)
     h_psi        :      2.61s CPU      2.63s WALL (    1565 calls)
     s_psi        :      0.03s CPU      0.03s WALL (    1565 calls)
     g_psi        :      0.01s CPU      0.01s WALL (    1081 calls)

     Called by h_psi:
     h_psi:calbec :      0.05s CPU      0.05s WALL (    1565 calls)
     vloc_psi     :      2.51s CPU      2.54s WALL (    1565 calls)
     add_vuspsi   :      0.04s CPU      0.04s WALL (    1565 calls)

     General routines
     calbec       :      0.06s CPU      0.06s WALL (    2005 calls)
     fft          :      0.23s CPU      0.23s WALL (     269 calls)
     ffts         :      0.01s CPU      0.01s WALL (      42 calls)
     fftw         :      2.70s CPU      2.73s WALL (   31520 calls)
     interpolate  :      0.03s CPU      0.03s WALL (      22 calls)

     Parallel routines

     PWSCF        :      6.15s CPU      6.23s WALL


   This run was terminated on:   0:17:38  19Apr2021            

=------------------------------------------------------------------------------=
   JOB DONE.
=------------------------------------------------------------------------------=
