
     Program PWSCF v.6.7GPU starts on 19Apr2021 at  0:17:48 

     This program is part of the open-source Quantum ESPRESSO suite
     for quantum simulation of materials; please cite
         "P. Giannozzi et al., J. Phys.:Condens. Matter 21 395502 (2009);
         "P. Giannozzi et al., J. Phys.:Condens. Matter 29 465901 (2017);
         "P. Giannozzi et al., J. Chem. Phys. 152 154105 (2020);
          URL http://www.quantum-espresso.org", 
     in publications or presentations arising from this work. More details at
     http://www.quantum-espresso.org/quote

     Parallel version (MPI & OpenMP), running on       2 processor cores
     Number of MPI processes:                 2
     Threads/MPI process:                     1

     MPI processes distributed on     1 nodes
     K-points division:     npool     =       2
     Reading input from fe.scf.4.8.in

     Current dimensions of program PWSCF are:
     Max number of different atomic species (ntypx) = 10
     Max number of k-points (npk) =  40000
     Max angular momentum in pseudopotentials (lmaxx) =  3

     Subspace diagonalization in iterative solution of the eigenvalue problem:
     a serial algorithm will be used


     G-vector sticks info
     --------------------
     sticks:   dense  smooth     PW     G-vecs:    dense   smooth      PW
     Sum        1105     363    117                23215     4321     791

     Using Slab Decomposition



     bravais-lattice index     =            3
     lattice parameter (alat)  =       4.8000  a.u.
     unit-cell volume          =      55.2960 (a.u.)^3
     number of atoms/cell      =            1
     number of atomic types    =            1
     number of electrons       =        16.00
     number of Kohn-Sham states=           12
     kinetic-energy cutoff     =      70.0000  Ry
     charge density cutoff     =     850.0000  Ry
     scf convergence threshold =      1.0E-08
     mixing beta               =       0.7000
     number of iterations used =            8  plain     mixing
     Exchange-correlation= PBE
                           (   1   4   3   4   0   0   0)

     celldm(1)=   4.800000  celldm(2)=   0.000000  celldm(3)=   0.000000
     celldm(4)=   0.000000  celldm(5)=   0.000000  celldm(6)=   0.000000

     crystal axes: (cart. coord. in units of alat)
               a(1) = (   0.500000   0.500000   0.500000 )  
               a(2) = (  -0.500000   0.500000   0.500000 )  
               a(3) = (  -0.500000  -0.500000   0.500000 )  

     reciprocal axes: (cart. coord. in units 2 pi/alat)
               b(1) = (  1.000000  0.000000  1.000000 )  
               b(2) = ( -1.000000  1.000000  0.000000 )  
               b(3) = (  0.000000 -1.000000  1.000000 )  


     PseudoPot. # 1 for Fe read from file:
     /home/pietro/repositories/materials-for-max-qe2021-online-school/pseudo/Fe.pbe-spn-rrkjus_psl.0.2.1.UPF
     MD5 check sum: f9af58635850a145d9bd408d58feeb93
     Pseudo is Ultrasoft + core correction, Zval = 16.0
     Generated using "atomic" code by A. Dal Corso  v.5.0.2 svn rev. 9415
     Using radial grid of 1191 points,  6 beta functions with: 
                l(1) =   0
                l(2) =   0
                l(3) =   1
                l(4) =   1
                l(5) =   2
                l(6) =   2
     Q(r) pseudized with 0 coefficients 


     atomic species   valence    mass     pseudopotential
        Fe            16.00    55.84500     Fe( 1.00)

     Starting magnetic structure 
     atomic species   magnetization
        Fe           0.700

     48 Sym. Ops., with inversion, found



   Cartesian axes

     site n.     atom                  positions (alat units)
         1           Fe  tau(   1) = (   0.0000000   0.0000000   0.0000000  )

     number of k points=    44  Marzari-Vanderbilt smearing, width (Ry)=  0.0200
                       cart. coord. in units 2pi/alat
        k(    1) = (   0.0000000   0.0000000   0.1000000), wk =   0.0060000
        k(    2) = (   0.0000000  -0.1000000   0.2000000), wk =   0.0240000
        k(    3) = (   0.0000000  -0.2000000   0.3000000), wk =   0.0240000
        k(    4) = (   0.0000000  -0.3000000   0.4000000), wk =   0.0240000
        k(    5) = (   0.0000000  -0.4000000   0.5000000), wk =   0.0240000
        k(    6) = (  -0.1000000   0.1000000   0.1000000), wk =   0.0080000
        k(    7) = (  -0.1000000  -0.1000000   0.3000000), wk =   0.0240000
        k(    8) = (  -0.1000000  -0.2000000   0.4000000), wk =   0.0480000
        k(    9) = (  -0.1000000  -0.3000000   0.5000000), wk =   0.0480000
        k(   10) = (  -0.1000000   0.6000000  -0.4000000), wk =   0.0240000
        k(   11) = (  -0.2000000   0.2000000   0.1000000), wk =   0.0240000
        k(   12) = (  -0.2000000  -0.2000000   0.5000000), wk =   0.0240000
        k(   13) = (  -0.2000000   0.7000000  -0.4000000), wk =   0.0480000
        k(   14) = (  -0.3000000   0.3000000   0.1000000), wk =   0.0240000
        k(   15) = (  -0.3000000   0.2000000   0.2000000), wk =   0.0240000
        k(   16) = (  -0.3000000   0.7000000  -0.3000000), wk =   0.0080000
        k(   17) = (  -0.4000000   0.4000000   0.1000000), wk =   0.0240000
        k(   18) = (  -0.4000000   0.3000000   0.2000000), wk =   0.0480000
        k(   19) = (   0.5000000  -0.5000000   0.1000000), wk =   0.0120000
        k(   20) = (   0.5000000  -0.6000000   0.2000000), wk =   0.0480000
        k(   21) = (   0.5000000  -0.7000000   0.3000000), wk =   0.0240000
        k(   22) = (   0.4000000  -0.6000000   0.3000000), wk =   0.0240000
        k(   23) = (   0.0000000   0.0000000   0.3000000), wk =   0.0060000
        k(   24) = (   0.0000000  -0.1000000   0.4000000), wk =   0.0240000
        k(   25) = (   0.0000000  -0.2000000   0.5000000), wk =   0.0240000
        k(   26) = (   0.0000000  -0.3000000   0.6000000), wk =   0.0240000
        k(   27) = (  -0.1000000  -0.1000000   0.5000000), wk =   0.0240000
        k(   28) = (  -0.1000000  -0.2000000   0.6000000), wk =   0.0480000
        k(   29) = (  -0.1000000   0.7000000  -0.3000000), wk =   0.0240000
        k(   30) = (  -0.2000000   0.8000000  -0.3000000), wk =   0.0240000
        k(   31) = (  -0.3000000   0.3000000   0.3000000), wk =   0.0080000
        k(   32) = (   0.6000000  -0.6000000   0.3000000), wk =   0.0240000
        k(   33) = (   0.5000000  -0.5000000   0.3000000), wk =   0.0120000
        k(   34) = (   0.5000000  -0.6000000   0.4000000), wk =   0.0240000
        k(   35) = (   0.0000000   0.0000000   0.5000000), wk =   0.0060000
        k(   36) = (   0.0000000  -0.1000000   0.6000000), wk =   0.0240000
        k(   37) = (   0.0000000  -0.2000000   0.7000000), wk =   0.0240000
        k(   38) = (  -0.1000000  -0.1000000   0.7000000), wk =   0.0240000
        k(   39) = (  -0.1000000   0.8000000  -0.2000000), wk =   0.0240000
        k(   40) = (   0.5000000  -0.5000000   0.5000000), wk =   0.0020000
        k(   41) = (   0.0000000   0.0000000   0.7000000), wk =   0.0060000
        k(   42) = (   0.0000000  -0.1000000   0.8000000), wk =   0.0240000
        k(   43) = (  -0.1000000   0.9000000  -0.1000000), wk =   0.0080000
        k(   44) = (   0.0000000   0.0000000   0.9000000), wk =   0.0060000

     Dense  grid:    23215 G-vectors     FFT dimensions: (  40,  40,  40)

     Smooth grid:     4321 G-vectors     FFT dimensions: (  24,  24,  24)

     Estimated max dynamical RAM per process >      64.08 MB

     Estimated total dynamical RAM >     116.82 MB

     Check: negative core charge=   -0.000012
     Generating pointlists ...
     new r_m :   0.3572 (alat units)  1.7147 (a.u.) for type    1

     Initial potential from superposition of free atoms

     starting charge   15.99956, renormalised to   16.00000
     Starting wfcs are   13 randomized atomic wfcs

     total cpu time spent up to now is        0.7 secs

     Self-consistent Calculation

     iteration #  1     ecut=    70.00 Ry     beta= 0.70
     Davidson diagonalization with overlap
     ethr =  1.00E-02,  avg # of iterations =  4.2

     negative rho (up, down):  0.000E+00 3.446E-05

     total cpu time spent up to now is        1.4 secs

     total energy              =    -253.96872436 Ry
     estimated scf accuracy    <       1.65311012 Ry

     total magnetization       =     3.49 Bohr mag/cell
     absolute magnetization    =     3.49 Bohr mag/cell

     iteration #  2     ecut=    70.00 Ry     beta= 0.70
     Davidson diagonalization with overlap
     ethr =  1.00E-02,  avg # of iterations =  1.0

     negative rho (up, down):  0.000E+00 3.889E-05

     total cpu time spent up to now is        1.9 secs

     total energy              =    -254.22451808 Ry
     estimated scf accuracy    <       0.29249268 Ry

     total magnetization       =     2.70 Bohr mag/cell
     absolute magnetization    =     2.78 Bohr mag/cell

     iteration #  3     ecut=    70.00 Ry     beta= 0.70
     Davidson diagonalization with overlap
     ethr =  1.83E-03,  avg # of iterations =  1.9

     negative rho (up, down):  0.000E+00 3.174E-05

     total cpu time spent up to now is        2.4 secs

     total energy              =    -254.26203103 Ry
     estimated scf accuracy    <       0.17834757 Ry

     total magnetization       =     1.87 Bohr mag/cell
     absolute magnetization    =     1.96 Bohr mag/cell

     iteration #  4     ecut=    70.00 Ry     beta= 0.70
     Davidson diagonalization with overlap
     ethr =  1.11E-03,  avg # of iterations =  2.0

     negative rho (up, down):  0.000E+00 4.722E-06

     total cpu time spent up to now is        3.0 secs

     total energy              =    -254.29015672 Ry
     estimated scf accuracy    <       0.00386755 Ry

     total magnetization       =     1.80 Bohr mag/cell
     absolute magnetization    =     1.89 Bohr mag/cell

     iteration #  5     ecut=    70.00 Ry     beta= 0.70
     Davidson diagonalization with overlap
     ethr =  2.42E-05,  avg # of iterations =  4.0

     total cpu time spent up to now is        3.7 secs

     total energy              =    -254.29357754 Ry
     estimated scf accuracy    <       0.00061165 Ry

     total magnetization       =     1.62 Bohr mag/cell
     absolute magnetization    =     1.68 Bohr mag/cell

     iteration #  6     ecut=    70.00 Ry     beta= 0.70
     Davidson diagonalization with overlap
     ethr =  3.82E-06,  avg # of iterations =  2.5

     total cpu time spent up to now is        4.3 secs

     total energy              =    -254.29400209 Ry
     estimated scf accuracy    <       0.00036615 Ry

     total magnetization       =     1.54 Bohr mag/cell
     absolute magnetization    =     1.59 Bohr mag/cell

     iteration #  7     ecut=    70.00 Ry     beta= 0.70
     Davidson diagonalization with overlap
     ethr =  2.29E-06,  avg # of iterations =  1.8

     total cpu time spent up to now is        4.8 secs

     total energy              =    -254.29407424 Ry
     estimated scf accuracy    <       0.00000541 Ry

     total magnetization       =     1.53 Bohr mag/cell
     absolute magnetization    =     1.57 Bohr mag/cell

     iteration #  8     ecut=    70.00 Ry     beta= 0.70
     Davidson diagonalization with overlap
     ethr =  3.38E-08,  avg # of iterations =  3.9

     total cpu time spent up to now is        5.5 secs

     total energy              =    -254.29408376 Ry
     estimated scf accuracy    <       0.00000068 Ry

     total magnetization       =     1.52 Bohr mag/cell
     absolute magnetization    =     1.56 Bohr mag/cell

     iteration #  9     ecut=    70.00 Ry     beta= 0.70
     Davidson diagonalization with overlap
     ethr =  4.22E-09,  avg # of iterations =  1.9

     total cpu time spent up to now is        6.0 secs

     total energy              =    -254.29408376 Ry
     estimated scf accuracy    <       0.00000032 Ry

     total magnetization       =     1.52 Bohr mag/cell
     absolute magnetization    =     1.56 Bohr mag/cell

     iteration # 10     ecut=    70.00 Ry     beta= 0.70
     Davidson diagonalization with overlap
     ethr =  1.99E-09,  avg # of iterations =  1.9

     Magnetic moment per site  (integrated on atomic sphere of radius R)
     atom   1 (R=0.357)  charge= 14.1197  magn=  1.5198

     total cpu time spent up to now is        6.5 secs

     End of self-consistent calculation

 ------ SPIN UP ------------


          k = 0.0000 0.0000 0.1000 (   551 PWs)   bands (ev):

   -61.5282 -26.9036 -26.8805 -26.8805  16.7745  23.9652  23.9652  24.0612
    25.8301  26.0675  54.0039  55.1782

          k = 0.0000-0.1000 0.2000 (   566 PWs)   bands (ev):

   -61.4746 -27.1238 -26.9524 -26.8883  17.7904  23.6427  23.8806  24.7302
    25.4762  26.1851  51.2132  53.9640

          k = 0.0000-0.2000 0.3000 (   553 PWs)   bands (ev):

   -61.3869 -27.4806 -27.0651 -26.8894  19.3453  23.1028  23.6911  25.5201
    25.9516  26.3312  46.8910  51.5406

          k = 0.0000-0.3000 0.4000 (   552 PWs)   bands (ev):

   -61.2983 -27.8307 -27.1768 -26.8908  20.1287  22.5937  24.4722  25.9633
    26.7048  27.3225  42.1970  49.4516

          k = 0.0000-0.4000 0.5000 (   547 PWs)   bands (ev):

   -61.2431 -28.0429 -27.2454 -26.8914  20.0375  22.2930  25.4569  26.0862
    28.0961  28.2717  38.5661  48.2692

          k =-0.1000 0.1000 0.1000 (   561 PWs)   bands (ev):

   -61.5010 -27.0537 -26.8824 -26.8824  17.2975  23.7414  23.7414  24.6079
    25.9013  25.9013  53.0990  53.0990

          k =-0.1000-0.1000 0.3000 (   550 PWs)   bands (ev):

   -61.4049 -27.3662 -27.0330 -26.9385  19.0893  23.4601  23.5204  25.1625
    25.6493  26.4627  48.8096  50.9010

          k =-0.1000-0.2000 0.4000 (   555 PWs)   bands (ev):

   -61.3181 -27.6756 -27.1664 -26.9538  20.3928  22.8669  23.4642  25.4228
    26.5893  27.4092  44.7764  48.1938

          k =-0.1000-0.3000 0.5000 (   547 PWs)   bands (ev):

   -61.2472 -27.9218 -27.2804 -26.9566  20.5715  22.5779  24.0147  25.8454
    27.1903  29.4072  40.3256  46.6843

          k =-0.1000 0.6000-0.4000 (   542 PWs)   bands (ev):

   -61.2199 -28.0145 -27.3241 -26.9572  20.4406  22.4766  24.3654  25.9074
    27.6632  30.8482  37.9530  46.1372

          k =-0.2000 0.2000 0.1000 (   551 PWs)   bands (ev):

   -61.4292 -27.3462 -26.9778 -26.8866  18.6873  23.2270  23.4590  25.6958
    25.7518  26.0457  49.1540  51.3126

          k =-0.2000-0.2000 0.5000 (   549 PWs)   bands (ev):

   -61.2488 -27.8249 -27.3347 -26.9932  21.2685  22.2730  23.4762  25.6453
    26.8528  29.8374  42.5242  43.9825

          k =-0.2000 0.7000-0.4000 (   543 PWs)   bands (ev):

   -61.2057 -27.8849 -27.4824 -27.0045  21.3195  22.3964  23.2853  26.0341
    27.0783  32.7390  38.7905  42.4659

          k =-0.3000 0.3000 0.1000 (   551 PWs)   bands (ev):

   -61.3396 -27.6848 -27.1124 -26.8922  20.0640  22.6742  23.6660  25.8787
    26.2004  27.2269  44.5087  49.3155

          k =-0.3000 0.2000 0.2000 (   544 PWs)   bands (ev):

   -61.3553 -27.6117 -27.0547 -26.9428  20.1658  22.8100  22.9144  25.7852
    26.2261  27.3154  46.6251  47.8878

          k =-0.3000 0.7000-0.3000 (   553 PWs)   bands (ev):

   -61.1899 -27.7192 -27.7192 -27.0170  22.0077  22.4322  22.4322  26.6147
    26.6147  36.3676  36.3676  40.3293

          k =-0.4000 0.4000 0.1000 (   547 PWs)   bands (ev):

   -61.2664 -27.9504 -27.2224 -26.8971  20.2477  22.2687  25.2846  26.1388
    26.3323  28.8564  40.1309  47.7977

          k =-0.4000 0.3000 0.2000 (   544 PWs)   bands (ev):

   -61.2809 -27.8261 -27.2110 -26.9684  20.9902  22.3688  23.4107  25.9754
    26.4212  29.3586  42.4855  45.7919

          k = 0.5000-0.5000 0.1000 (   538 PWs)   bands (ev):

   -61.2382 -28.0499 -27.2643 -26.8986  20.1335  22.1213  26.1864  26.3692
    26.3871  29.8651  37.9468  47.2377

          k = 0.5000-0.6000 0.2000 (   545 PWs)   bands (ev):

   -61.2346 -27.9392 -27.3306 -26.9790  20.8280  22.1645  24.5013  26.1889
    26.5807  31.5226  38.6647  44.7858

          k = 0.5000-0.7000 0.3000 (   545 PWs)   bands (ev):

   -61.2333 -27.8434 -27.3971 -27.0233  21.5183  22.2679  23.3534  26.1583
    26.5712  32.1685  40.3293  42.1553

          k = 0.4000-0.6000 0.3000 (   545 PWs)   bands (ev):

   -61.2151 -27.7963 -27.5281 -27.0384  21.5237  22.3661  23.3961  26.3264
    26.5713  34.5727  37.6854  41.2303

          k = 0.0000 0.0000 0.3000 (   555 PWs)   bands (ev):

   -61.4238 -27.1851 -27.0249 -27.0249  18.7107  24.0451  24.0451  24.5849
    24.7411  26.5832  50.2821  53.7250

          k = 0.0000-0.1000 0.4000 (   555 PWs)   bands (ev):

   -61.3411 -27.4682 -27.1422 -27.0577  20.0769  23.3936  23.7804  24.7534
    25.7946  27.0781  47.4210  50.8179

          k = 0.0000-0.2000 0.5000 (   549 PWs)   bands (ev):

   -61.2575 -27.7826 -27.2574 -27.0523  20.7617  23.0371  23.3616  25.4062
    27.1903  28.3525  42.7509  49.1201

          k = 0.0000-0.3000 0.6000 (   548 PWs)   bands (ev):

   -61.2054 -27.9760 -27.3285 -27.0467  20.5837  23.1031  23.3730  25.5403
    28.1797  30.6542  38.7523  48.2676

          k =-0.1000-0.1000 0.5000 (   552 PWs)   bands (ev):

   -61.2615 -27.6674 -27.2845 -27.1169  21.0370  22.4862  23.9897  25.0027
    26.6569  28.3967  45.2802  46.5766

          k =-0.1000-0.2000 0.6000 (   549 PWs)   bands (ev):

   -61.1966 -27.8496 -27.4178 -27.1207  21.1946  22.2243  23.6513  25.5761
    27.4596  31.0296  40.9758  44.5895

          k =-0.1000 0.7000-0.3000 (   548 PWs)   bands (ev):

   -61.1717 -27.9211 -27.4695 -27.1184  20.9811  22.4976  23.3556  25.7366
    27.8911  33.2616  38.0582  43.9841

          k =-0.2000 0.8000-0.3000 (   551 PWs)   bands (ev):

   -61.1588 -27.8166 -27.6231 -27.1307  21.5878  21.7641  23.2352  26.4158
    27.2982  34.5928  38.8925  40.9561

          k =-0.3000 0.3000 0.3000 (   546 PWs)   bands (ev):

   -61.2938 -27.7834 -27.0823 -27.0823  21.6472  22.3651  22.3651  26.1833
    26.1833  29.4245  44.7721  44.7721

          k = 0.6000-0.6000 0.3000 (   541 PWs)   bands (ev):

   -61.2438 -27.8368 -27.2812 -27.1043  21.7024  22.1311  23.2859  26.2891
    26.3731  31.9501  40.7472  43.5425

          k = 0.5000-0.5000 0.3000 (   542 PWs)   bands (ev):

   -61.2247 -27.8257 -27.3895 -27.1126  21.5126  22.0620  23.9138  26.3565
    26.4246  33.9128  38.0371  43.1110

          k = 0.5000-0.6000 0.4000 (   539 PWs)   bands (ev):

   -61.2210 -27.7087 -27.4468 -27.2037  21.9220  22.4142  23.0733  26.3987
    26.4434  35.0802  38.9168  40.8225

          k = 0.0000 0.0000 0.5000 (   554 PWs)   bands (ev):

   -61.2664 -27.5077 -27.2653 -27.2653  20.9224  22.6628  24.6585  24.6585
    25.8837  28.1529  47.9974  48.9845

          k = 0.0000-0.1000 0.6000 (   549 PWs)   bands (ev):

   -61.1911 -27.7087 -27.3870 -27.3048  21.2049  21.7900  24.7123  25.2764
    27.0073  30.1684  43.8113  46.6034

          k = 0.0000-0.2000 0.7000 (   544 PWs)   bands (ev):

   -61.1442 -27.8672 -27.4609 -27.2926  20.8572  21.6634  24.5703  25.5582
    28.0324  33.2309  39.2872  45.1251

          k =-0.1000-0.1000 0.7000 (   532 PWs)   bands (ev):

   -61.1337 -27.7779 -27.5435 -27.3406  21.0532  21.1090  24.8361  26.1674
    27.5471  33.0929  41.7625  42.5893

          k =-0.1000 0.8000-0.2000 (   541 PWs)   bands (ev):

   -61.1117 -27.8046 -27.6223 -27.3364  20.7719  21.0520  24.7464  26.6286
    27.8119  36.0764  38.4401  41.6047

          k = 0.5000-0.5000 0.5000 (   544 PWs)   bands (ev):

   -61.2163 -27.4661 -27.4661 -27.4661  22.5049  22.5049  22.5049  26.4478
    26.4478  38.4301  38.4301  38.4301

          k = 0.0000 0.0000 0.7000 (   538 PWs)   bands (ev):

   -61.1241 -27.6716 -27.5139 -27.5139  20.8448  20.8734  26.0591  26.0591
    27.0819  32.4895  43.8759  43.8759

          k = 0.0000-0.1000 0.8000 (   540 PWs)   bands (ev):

   -61.0826 -27.7574 -27.5920 -27.5326  20.3415  20.4734  26.3389  26.6633
    27.8890  35.7059  40.1784  42.1637

          k =-0.1000 0.9000-0.1000 (   541 PWs)   bands (ev):

   -61.0630 -27.7090 -27.7090 -27.5465  20.1434  20.1434  26.5100  27.7028
    27.7028  38.7801  38.7801  39.9903

          k = 0.0000 0.0000 0.9000 (   534 PWs)   bands (ev):

   -61.0442 -27.6951 -27.6719 -27.6719  19.8336  19.8643  27.6573  27.6573
    27.8516  38.2179  40.2510  40.2510

 ------ SPIN DOWN ----------


          k = 0.0000 0.0000 0.1000 (   551 PWs)   bands (ev):

   -59.6111 -24.9876 -24.9622 -24.9622  16.9804  25.1609  25.1609  25.2668
    27.9942  28.2718  54.0334  55.1176

          k = 0.0000-0.1000 0.2000 (   566 PWs)   bands (ev):

   -59.5543 -25.2230 -25.0383 -24.9707  18.0123  24.8084  25.0704  25.9639
    27.5406  28.3954  51.5220  54.0744

          k = 0.0000-0.2000 0.3000 (   553 PWs)   bands (ev):

   -59.4616 -25.6044 -25.1578 -24.9719  19.6704  24.2228  24.8475  27.2433
    27.4087  28.5353  47.4637  51.7216

          k = 0.0000-0.3000 0.4000 (   552 PWs)   bands (ev):

   -59.3678 -25.9778 -25.2762 -24.9735  20.8157  23.6741  25.4190  27.7155
    28.6898  28.7707  42.9660  49.6146

          k = 0.0000-0.4000 0.5000 (   547 PWs)   bands (ev):

   -59.3094 -26.2037 -25.3488 -24.9742  20.9371  23.3514  26.7043  27.9364
    29.3889  29.7006  39.5368  48.4015

          k =-0.1000 0.1000 0.1000 (   561 PWs)   bands (ev):

   -59.5823 -25.1476 -24.9643 -24.9643  17.5091  24.9237  24.9237  25.8331
    28.0653  28.0653  53.2592  53.2592

          k =-0.1000-0.1000 0.3000 (   550 PWs)   bands (ev):

   -59.4807 -25.4822 -25.1242 -25.0241  19.3627  24.6445  24.6910  26.9095
    27.0621  28.6680  49.2998  51.2416

          k =-0.1000-0.2000 0.4000 (   555 PWs)   bands (ev):

   -59.3888 -25.8121 -25.2659 -25.0404  20.8972  24.0445  24.5462  27.1614
    28.2835  29.1172  45.4439  48.6034

          k =-0.1000-0.3000 0.5000 (   547 PWs)   bands (ev):

   -59.3138 -26.0744 -25.3870 -25.0434  21.4412  23.6624  25.1239  27.5875
    28.9235  30.6736  41.1668  47.1002

          k =-0.1000 0.6000-0.4000 (   542 PWs)   bands (ev):

   -59.2849 -26.1731 -25.4334 -25.0442  21.4034  23.5375  25.5973  27.7123
    29.2522  31.8921  38.9428  46.5462

          k =-0.2000 0.2000 0.1000 (   551 PWs)   bands (ev):

   -59.5063 -25.4605 -25.0657 -24.9689  18.9337  24.3672  24.6298  26.9714
    27.7839  28.2240  49.5899  51.5790

          k =-0.2000-0.2000 0.5000 (   549 PWs)   bands (ev):

   -59.3155 -25.9708 -25.4460 -25.0819  22.0263  23.5142  24.4788  27.3405
    28.6984  31.1144  43.2950  44.5140

          k =-0.2000 0.7000-0.4000 (   543 PWs)   bands (ev):

   -59.2699 -26.0345 -25.6036 -25.0938  22.3086  23.5152  24.4253  27.7474
    28.7805  33.7785  39.6695  43.0549

          k =-0.3000 0.3000 0.1000 (   551 PWs)   bands (ev):

   -59.4115 -25.8221 -25.2082 -24.9750  20.5357  23.7638  24.6393  27.8228
    28.4104  28.5057  45.1619  49.5766

          k =-0.3000 0.2000 0.2000 (   544 PWs)   bands (ev):

   -59.4281 -25.7437 -25.1478 -25.0288  20.4980  23.9616  23.9834  27.7935
    28.3689  28.6040  47.1645  48.3082

          k =-0.3000 0.7000-0.3000 (   553 PWs)   bands (ev):

   -59.2532 -25.8570 -25.8570 -25.1068  22.9680  23.6146  23.6146  28.3017
    28.3017  37.2821  37.2821  40.9904

          k =-0.4000 0.4000 0.1000 (   547 PWs)   bands (ev):

   -59.3340 -26.1052 -25.3249 -24.9804  21.0696  23.3216  25.9500  28.0291
    28.5777  30.0587  40.9822  48.0127

          k =-0.4000 0.3000 0.2000 (   544 PWs)   bands (ev):

   -59.3493 -25.9723 -25.3142 -25.0561  21.6827  23.4389  24.2637  27.9374
    28.5945  30.5484  43.1831  46.2421

          k = 0.5000-0.5000 0.1000 (   538 PWs)   bands (ev):

   -59.3042 -26.2112 -25.3693 -24.9821  21.0409  23.1612  26.9676  28.1166
    28.6487  30.8989  38.9526  47.4292

          k = 0.5000-0.6000 0.2000 (   545 PWs)   bands (ev):

   -59.3003 -26.0930 -25.4412 -25.0675  21.7324  23.1872  25.3470  28.1458
    28.6991  32.5032  39.5529  45.2216

          k = 0.5000-0.7000 0.3000 (   545 PWs)   bands (ev):

   -59.2989 -25.9905 -25.5133 -25.1144  22.3950  23.3327  24.2042  28.1249
    28.6686  33.1971  41.0782  42.7357

          k = 0.4000-0.6000 0.3000 (   545 PWs)   bands (ev):

   -59.2796 -25.9401 -25.6532 -25.1304  22.4503  23.3798  24.3532  28.3101
    28.6046  35.4370  38.5418  41.8406

          k = 0.0000 0.0000 0.3000 (   555 PWs)   bands (ev):

   -59.5007 -25.2899 -25.1154 -25.1154  18.9637  25.2103  25.2103  25.9788
    26.5381  28.8042  50.6948  54.0252

          k = 0.0000-0.1000 0.4000 (   555 PWs)   bands (ev):

   -59.4132 -25.5915 -25.2399 -25.1510  20.4666  24.8419  24.9211  26.2618
    27.0768  29.1903  48.0364  51.1773

          k = 0.0000-0.2000 0.5000 (   549 PWs)   bands (ev):

   -59.3248 -25.9260 -25.3623 -25.1455  21.5381  24.3740  24.4707  26.9262
    28.5482  30.0284  43.5073  49.5124

          k = 0.0000-0.3000 0.6000 (   548 PWs)   bands (ev):

   -59.2698 -26.1317 -25.4375 -25.1396  21.6089  24.1934  24.6882  27.1757
    29.6029  31.8128  39.6794  48.6618

          k =-0.1000-0.1000 0.5000 (   552 PWs)   bands (ev):

   -59.3291 -25.8033 -25.3917 -25.2137  21.6926  23.9599  25.1202  26.3940
    28.0731  30.0926  46.0239  47.0646

          k =-0.1000-0.2000 0.6000 (   549 PWs)   bands (ev):

   -59.2605 -25.9966 -25.5338 -25.2176  22.2428  23.5296  24.8027  27.0304
    28.9291  32.2524  41.7798  45.1660

          k =-0.1000 0.7000-0.3000 (   548 PWs)   bands (ev):

   -59.2342 -26.0724 -25.5887 -25.2152  22.1480  23.8158  24.4655  27.2299
    29.3471  34.2599  38.9828  44.5572

          k =-0.2000 0.8000-0.3000 (   551 PWs)   bands (ev):

   -59.2206 -25.9604 -25.7532 -25.2278  22.9282  22.9764  24.3285  27.8516
    28.7689  35.5850  39.7751  41.5683

          k =-0.3000 0.3000 0.3000 (   546 PWs)   bands (ev):

   -59.3630 -25.9265 -25.1776 -25.1776  22.0689  23.4243  23.4243  28.3189
    28.3189  30.6084  45.3085  45.3085

          k = 0.6000-0.6000 0.3000 (   541 PWs)   bands (ev):

   -59.3100 -25.9835 -25.3897 -25.2015  22.5687  23.1227  24.0371  28.3962
    28.6053  32.9630  41.4439  44.0543

          k = 0.5000-0.5000 0.3000 (   542 PWs)   bands (ev):

   -59.2897 -25.9718 -25.5049 -25.2105  22.4188  23.0287  24.7045  28.4554
    28.6935  34.7307  38.8928  43.6097

          k = 0.5000-0.6000 0.4000 (   539 PWs)   bands (ev):

   -59.2857 -25.8468 -25.5670 -25.3076  22.8370  23.3469  23.8940  28.5826
    28.6796  35.9096  39.6225  41.4434

          k = 0.0000 0.0000 0.5000 (   554 PWs)   bands (ev):

   -59.3344 -25.6341 -25.3710 -25.3710  21.5475  24.3428  25.8170  25.8170
    27.1791  29.9769  48.7498  49.4860

          k = 0.0000-0.1000 0.6000 (   549 PWs)   bands (ev):

   -59.2548 -25.8467 -25.5003 -25.4138  22.2023  23.2883  25.8755  26.5405
    28.3551  31.5153  44.5060  47.1027

          k = 0.0000-0.2000 0.7000 (   544 PWs)   bands (ev):

   -59.2053 -26.0144 -25.5788 -25.4011  22.1335  23.0075  25.7264  26.8832
    29.4468  34.2232  40.0977  45.5913

          k =-0.1000-0.1000 0.7000 (   532 PWs)   bands (ev):

   -59.1943 -25.9192 -25.6675 -25.4516  22.3334  22.4933  26.0040  27.4466
    28.9416  34.0962  42.5020  43.1229

          k =-0.1000 0.8000-0.2000 (   541 PWs)   bands (ev):

   -59.1711 -25.9467 -25.7516 -25.4470  22.1373  22.4054  25.8851  27.9527
    29.2178  36.9190  39.2184  42.1662

          k = 0.5000-0.5000 0.5000 (   544 PWs)   bands (ev):

   -59.2807 -25.5879 -25.5879 -25.5879  23.3829  23.3829  23.3829  28.7214
    28.7214  39.1142  39.1142  39.1143

          k = 0.0000 0.0000 0.7000 (   538 PWs)   bands (ev):

   -59.1843 -25.8065 -25.6355 -25.6355  22.0614  22.3493  27.2829  27.2829
    28.4434  33.4833  44.3444  44.3444

          k = 0.0000-0.1000 0.8000 (   540 PWs)   bands (ev):

   -59.1404 -25.8960 -25.7185 -25.6559  21.7270  21.8232  27.5990  27.9367
    29.2952  36.4499  40.7557  42.5758

          k =-0.1000 0.9000-0.1000 (   541 PWs)   bands (ev):

   -59.1198 -25.8436 -25.8436 -25.6702  21.5138  21.5138  27.7709  29.0837
    29.0837  39.3542  39.3542  40.4275

          k = 0.0000 0.0000 0.9000 (   534 PWs)   bands (ev):

   -59.1001 -25.8287 -25.8036 -25.8036  21.2093  21.2209  29.0299  29.0299
    29.2587  38.6794  40.5745  40.5745

     the Fermi energy is    27.0922 ev

!    total energy              =    -254.29408382 Ry
     estimated scf accuracy    <          2.3E-09 Ry
     smearing contrib. (-TS)   =      -0.00043032 Ry
     internal energy E=F+TS    =    -254.29365350 Ry

     The total energy is F=E-TS. E is the sum of the following terms:
     one-electron contribution =     -79.71816709 Ry
     hartree contribution      =      54.61422891 Ry
     xc contribution           =     -35.09726468 Ry
     ewald contribution        =    -194.09245064 Ry

     total magnetization       =     1.52 Bohr mag/cell
     absolute magnetization    =     1.56 Bohr mag/cell

     convergence has been achieved in  10 iterations

     Writing output data file ./tempdir/fe.save/

     init_run     :      0.64s CPU      0.66s WALL (       1 calls)
     electrons    :      5.75s CPU      5.82s WALL (       1 calls)

     Called by init_run:
     wfcinit      :      0.15s CPU      0.15s WALL (       1 calls)
     potinit      :      0.06s CPU      0.06s WALL (       1 calls)
     hinit0       :      0.39s CPU      0.39s WALL (       1 calls)

     Called by electrons:
     c_bands      :      3.36s CPU      3.41s WALL (      10 calls)
     sum_band     :      1.35s CPU      1.37s WALL (      10 calls)
     v_of_rho     :      0.58s CPU      0.58s WALL (      11 calls)
     newd         :      0.45s CPU      0.47s WALL (      11 calls)
     mix_rho      :      0.04s CPU      0.04s WALL (      10 calls)

     Called by c_bands:
     init_us_2    :      0.08s CPU      0.08s WALL (     924 calls)
     cegterg      :      2.92s CPU      2.96s WALL (     440 calls)

     Called by *egterg:
     cdiaghg      :      0.15s CPU      0.15s WALL (    1519 calls)
     h_psi        :      2.64s CPU      2.67s WALL (    1563 calls)
     s_psi        :      0.04s CPU      0.04s WALL (    1563 calls)
     g_psi        :      0.02s CPU      0.02s WALL (    1079 calls)

     Called by h_psi:
     h_psi:calbec :      0.05s CPU      0.05s WALL (    1563 calls)
     vloc_psi     :      2.54s CPU      2.57s WALL (    1563 calls)
     add_vuspsi   :      0.04s CPU      0.04s WALL (    1563 calls)

     General routines
     calbec       :      0.07s CPU      0.07s WALL (    2003 calls)
     fft          :      0.24s CPU      0.24s WALL (     269 calls)
     ffts         :      0.01s CPU      0.01s WALL (      42 calls)
     fftw         :      2.72s CPU      2.76s WALL (   31680 calls)
     interpolate  :      0.03s CPU      0.03s WALL (      22 calls)

     Parallel routines

     PWSCF        :      6.46s CPU      6.56s WALL


   This run was terminated on:   0:17:55  19Apr2021            

=------------------------------------------------------------------------------=
   JOB DONE.
=------------------------------------------------------------------------------=
