
     Program PWSCF v.6.7GPU starts on 19Apr2021 at  0:18: 3 

     This program is part of the open-source Quantum ESPRESSO suite
     for quantum simulation of materials; please cite
         "P. Giannozzi et al., J. Phys.:Condens. Matter 21 395502 (2009);
         "P. Giannozzi et al., J. Phys.:Condens. Matter 29 465901 (2017);
         "P. Giannozzi et al., J. Chem. Phys. 152 154105 (2020);
          URL http://www.quantum-espresso.org", 
     in publications or presentations arising from this work. More details at
     http://www.quantum-espresso.org/quote

     Parallel version (MPI & OpenMP), running on       2 processor cores
     Number of MPI processes:                 2
     Threads/MPI process:                     1

     MPI processes distributed on     1 nodes
     K-points division:     npool     =       2
     Reading input from fe.scf.5.0.in

     Current dimensions of program PWSCF are:
     Max number of different atomic species (ntypx) = 10
     Max number of k-points (npk) =  40000
     Max angular momentum in pseudopotentials (lmaxx) =  3

     Subspace diagonalization in iterative solution of the eigenvalue problem:
     a serial algorithm will be used


     G-vector sticks info
     --------------------
     sticks:   dense  smooth     PW     G-vecs:    dense   smooth      PW
     Sum        1199     395    129                26227     4921     935

     Using Slab Decomposition



     bravais-lattice index     =            3
     lattice parameter (alat)  =       5.0000  a.u.
     unit-cell volume          =      62.5000 (a.u.)^3
     number of atoms/cell      =            1
     number of atomic types    =            1
     number of electrons       =        16.00
     number of Kohn-Sham states=           12
     kinetic-energy cutoff     =      70.0000  Ry
     charge density cutoff     =     850.0000  Ry
     scf convergence threshold =      1.0E-08
     mixing beta               =       0.7000
     number of iterations used =            8  plain     mixing
     Exchange-correlation= PBE
                           (   1   4   3   4   0   0   0)

     celldm(1)=   5.000000  celldm(2)=   0.000000  celldm(3)=   0.000000
     celldm(4)=   0.000000  celldm(5)=   0.000000  celldm(6)=   0.000000

     crystal axes: (cart. coord. in units of alat)
               a(1) = (   0.500000   0.500000   0.500000 )  
               a(2) = (  -0.500000   0.500000   0.500000 )  
               a(3) = (  -0.500000  -0.500000   0.500000 )  

     reciprocal axes: (cart. coord. in units 2 pi/alat)
               b(1) = (  1.000000  0.000000  1.000000 )  
               b(2) = ( -1.000000  1.000000  0.000000 )  
               b(3) = (  0.000000 -1.000000  1.000000 )  


     PseudoPot. # 1 for Fe read from file:
     /home/pietro/repositories/materials-for-max-qe2021-online-school/pseudo/Fe.pbe-spn-rrkjus_psl.0.2.1.UPF
     MD5 check sum: f9af58635850a145d9bd408d58feeb93
     Pseudo is Ultrasoft + core correction, Zval = 16.0
     Generated using "atomic" code by A. Dal Corso  v.5.0.2 svn rev. 9415
     Using radial grid of 1191 points,  6 beta functions with: 
                l(1) =   0
                l(2) =   0
                l(3) =   1
                l(4) =   1
                l(5) =   2
                l(6) =   2
     Q(r) pseudized with 0 coefficients 


     atomic species   valence    mass     pseudopotential
        Fe            16.00    55.84500     Fe( 1.00)

     Starting magnetic structure 
     atomic species   magnetization
        Fe           0.700

     48 Sym. Ops., with inversion, found



   Cartesian axes

     site n.     atom                  positions (alat units)
         1           Fe  tau(   1) = (   0.0000000   0.0000000   0.0000000  )

     number of k points=    44  Marzari-Vanderbilt smearing, width (Ry)=  0.0200
                       cart. coord. in units 2pi/alat
        k(    1) = (   0.0000000   0.0000000   0.1000000), wk =   0.0060000
        k(    2) = (   0.0000000  -0.1000000   0.2000000), wk =   0.0240000
        k(    3) = (   0.0000000  -0.2000000   0.3000000), wk =   0.0240000
        k(    4) = (   0.0000000  -0.3000000   0.4000000), wk =   0.0240000
        k(    5) = (   0.0000000  -0.4000000   0.5000000), wk =   0.0240000
        k(    6) = (  -0.1000000   0.1000000   0.1000000), wk =   0.0080000
        k(    7) = (  -0.1000000  -0.1000000   0.3000000), wk =   0.0240000
        k(    8) = (  -0.1000000  -0.2000000   0.4000000), wk =   0.0480000
        k(    9) = (  -0.1000000  -0.3000000   0.5000000), wk =   0.0480000
        k(   10) = (  -0.1000000   0.6000000  -0.4000000), wk =   0.0240000
        k(   11) = (  -0.2000000   0.2000000   0.1000000), wk =   0.0240000
        k(   12) = (  -0.2000000  -0.2000000   0.5000000), wk =   0.0240000
        k(   13) = (  -0.2000000   0.7000000  -0.4000000), wk =   0.0480000
        k(   14) = (  -0.3000000   0.3000000   0.1000000), wk =   0.0240000
        k(   15) = (  -0.3000000   0.2000000   0.2000000), wk =   0.0240000
        k(   16) = (  -0.3000000   0.7000000  -0.3000000), wk =   0.0080000
        k(   17) = (  -0.4000000   0.4000000   0.1000000), wk =   0.0240000
        k(   18) = (  -0.4000000   0.3000000   0.2000000), wk =   0.0480000
        k(   19) = (   0.5000000  -0.5000000   0.1000000), wk =   0.0120000
        k(   20) = (   0.5000000  -0.6000000   0.2000000), wk =   0.0480000
        k(   21) = (   0.5000000  -0.7000000   0.3000000), wk =   0.0240000
        k(   22) = (   0.4000000  -0.6000000   0.3000000), wk =   0.0240000
        k(   23) = (   0.0000000   0.0000000   0.3000000), wk =   0.0060000
        k(   24) = (   0.0000000  -0.1000000   0.4000000), wk =   0.0240000
        k(   25) = (   0.0000000  -0.2000000   0.5000000), wk =   0.0240000
        k(   26) = (   0.0000000  -0.3000000   0.6000000), wk =   0.0240000
        k(   27) = (  -0.1000000  -0.1000000   0.5000000), wk =   0.0240000
        k(   28) = (  -0.1000000  -0.2000000   0.6000000), wk =   0.0480000
        k(   29) = (  -0.1000000   0.7000000  -0.3000000), wk =   0.0240000
        k(   30) = (  -0.2000000   0.8000000  -0.3000000), wk =   0.0240000
        k(   31) = (  -0.3000000   0.3000000   0.3000000), wk =   0.0080000
        k(   32) = (   0.6000000  -0.6000000   0.3000000), wk =   0.0240000
        k(   33) = (   0.5000000  -0.5000000   0.3000000), wk =   0.0120000
        k(   34) = (   0.5000000  -0.6000000   0.4000000), wk =   0.0240000
        k(   35) = (   0.0000000   0.0000000   0.5000000), wk =   0.0060000
        k(   36) = (   0.0000000  -0.1000000   0.6000000), wk =   0.0240000
        k(   37) = (   0.0000000  -0.2000000   0.7000000), wk =   0.0240000
        k(   38) = (  -0.1000000  -0.1000000   0.7000000), wk =   0.0240000
        k(   39) = (  -0.1000000   0.8000000  -0.2000000), wk =   0.0240000
        k(   40) = (   0.5000000  -0.5000000   0.5000000), wk =   0.0020000
        k(   41) = (   0.0000000   0.0000000   0.7000000), wk =   0.0060000
        k(   42) = (   0.0000000  -0.1000000   0.8000000), wk =   0.0240000
        k(   43) = (  -0.1000000   0.9000000  -0.1000000), wk =   0.0080000
        k(   44) = (   0.0000000   0.0000000   0.9000000), wk =   0.0060000

     Dense  grid:    26227 G-vectors     FFT dimensions: (  45,  45,  45)

     Smooth grid:     4921 G-vectors     FFT dimensions: (  24,  24,  24)

     Estimated max dynamical RAM per process >      74.10 MB

     Estimated total dynamical RAM >     135.39 MB

     Check: negative core charge=   -0.000011
     Generating pointlists ...
     new r_m :   0.3572 (alat units)  1.7862 (a.u.) for type    1

     Initial potential from superposition of free atoms

     starting charge   15.99956, renormalised to   16.00000
     Starting wfcs are   13 randomized atomic wfcs

     total cpu time spent up to now is        0.8 secs

     Self-consistent Calculation

     iteration #  1     ecut=    70.00 Ry     beta= 0.70
     Davidson diagonalization with overlap
     ethr =  1.00E-02,  avg # of iterations =  4.1

     negative rho (up, down):  0.000E+00 3.778E-05

     total cpu time spent up to now is        1.5 secs

     total energy              =    -254.01812418 Ry
     estimated scf accuracy    <       1.58174070 Ry

     total magnetization       =     3.68 Bohr mag/cell
     absolute magnetization    =     3.69 Bohr mag/cell

     iteration #  2     ecut=    70.00 Ry     beta= 0.70
     Davidson diagonalization with overlap
     ethr =  9.89E-03,  avg # of iterations =  1.1

     negative rho (up, down):  0.000E+00 4.320E-05

     total cpu time spent up to now is        2.2 secs

     total energy              =    -254.25873581 Ry
     estimated scf accuracy    <       0.30254990 Ry

     total magnetization       =     2.89 Bohr mag/cell
     absolute magnetization    =     2.98 Bohr mag/cell

     iteration #  3     ecut=    70.00 Ry     beta= 0.70
     Davidson diagonalization with overlap
     ethr =  1.89E-03,  avg # of iterations =  2.1

     negative rho (up, down):  0.000E+00 3.995E-05

     total cpu time spent up to now is        2.9 secs

     total energy              =    -254.29260024 Ry
     estimated scf accuracy    <       0.28663193 Ry

     total magnetization       =     2.14 Bohr mag/cell
     absolute magnetization    =     2.24 Bohr mag/cell

     iteration #  4     ecut=    70.00 Ry     beta= 0.70
     Davidson diagonalization with overlap
     ethr =  1.79E-03,  avg # of iterations =  2.0

     negative rho (up, down):  0.000E+00 1.655E-05

     total cpu time spent up to now is        3.5 secs

     total energy              =    -254.33879298 Ry
     estimated scf accuracy    <       0.00461572 Ry

     total magnetization       =     1.96 Bohr mag/cell
     absolute magnetization    =     2.08 Bohr mag/cell

     iteration #  5     ecut=    70.00 Ry     beta= 0.70
     Davidson diagonalization with overlap
     ethr =  2.88E-05,  avg # of iterations =  4.2

     negative rho (up, down):  0.000E+00 1.355E-05

     total cpu time spent up to now is        4.3 secs

     total energy              =    -254.34264438 Ry
     estimated scf accuracy    <       0.00061150 Ry

     total magnetization       =     1.82 Bohr mag/cell
     absolute magnetization    =     1.91 Bohr mag/cell

     iteration #  6     ecut=    70.00 Ry     beta= 0.70
     Davidson diagonalization with overlap
     ethr =  3.82E-06,  avg # of iterations =  2.7

     negative rho (up, down):  0.000E+00 8.750E-06

     total cpu time spent up to now is        4.9 secs

     total energy              =    -254.34293860 Ry
     estimated scf accuracy    <       0.00042616 Ry

     total magnetization       =     1.86 Bohr mag/cell
     absolute magnetization    =     1.93 Bohr mag/cell

     iteration #  7     ecut=    70.00 Ry     beta= 0.70
     Davidson diagonalization with overlap
     ethr =  2.66E-06,  avg # of iterations =  1.5

     negative rho (up, down):  0.000E+00 9.856E-06

     total cpu time spent up to now is        5.6 secs

     total energy              =    -254.34307408 Ry
     estimated scf accuracy    <       0.00000416 Ry

     total magnetization       =     1.83 Bohr mag/cell
     absolute magnetization    =     1.90 Bohr mag/cell

     iteration #  8     ecut=    70.00 Ry     beta= 0.70
     Davidson diagonalization with overlap
     ethr =  2.60E-08,  avg # of iterations =  3.9

     negative rho (up, down):  0.000E+00 9.777E-06

     total cpu time spent up to now is        6.3 secs

     total energy              =    -254.34307848 Ry
     estimated scf accuracy    <       0.00000116 Ry

     total magnetization       =     1.84 Bohr mag/cell
     absolute magnetization    =     1.91 Bohr mag/cell

     iteration #  9     ecut=    70.00 Ry     beta= 0.70
     Davidson diagonalization with overlap
     ethr =  7.25E-09,  avg # of iterations =  2.1

     negative rho (up, down):  0.000E+00 9.690E-06

     total cpu time spent up to now is        7.0 secs

     total energy              =    -254.34307923 Ry
     estimated scf accuracy    <       0.00000011 Ry

     total magnetization       =     1.84 Bohr mag/cell
     absolute magnetization    =     1.91 Bohr mag/cell

     iteration # 10     ecut=    70.00 Ry     beta= 0.70
     Davidson diagonalization with overlap
     ethr =  6.60E-10,  avg # of iterations =  2.4

     negative rho (up, down):  0.000E+00 9.645E-06

     total cpu time spent up to now is        7.6 secs

     total energy              =    -254.34307924 Ry
     estimated scf accuracy    <       0.00000001 Ry

     total magnetization       =     1.84 Bohr mag/cell
     absolute magnetization    =     1.90 Bohr mag/cell

     iteration # 11     ecut=    70.00 Ry     beta= 0.70
     Davidson diagonalization with overlap
     ethr =  7.08E-11,  avg # of iterations =  2.8

     negative rho (up, down):  0.000E+00 9.661E-06

     Magnetic moment per site  (integrated on atomic sphere of radius R)
     atom   1 (R=0.357)  charge= 14.2230  magn=  1.8517

     total cpu time spent up to now is        8.3 secs

     End of self-consistent calculation

 ------ SPIN UP ------------


          k = 0.0000 0.0000 0.1000 (   615 PWs)   bands (ev):

   -64.9716 -30.5670 -30.5520 -30.5520  13.8724  20.6636  20.6636  20.7436
    22.2069  22.3962  49.1234  50.2554

          k = 0.0000-0.1000 0.2000 (   621 PWs)   bands (ev):

   -64.9385 -30.7138 -30.6008 -30.5570  14.7976  20.3999  20.5972  21.3024
    21.9220  22.4892  46.1328  48.8768

          k = 0.0000-0.2000 0.3000 (   616 PWs)   bands (ev):

   -64.8846 -30.9540 -30.6787 -30.5570  16.2872  19.9547  20.4214  21.9529
    22.3210  22.6033  41.6496  46.5517

          k = 0.0000-0.3000 0.4000 (   619 PWs)   bands (ev):

   -64.8304 -31.1908 -30.7564 -30.5570  17.2387  19.5317  21.0280  22.3107
    22.9106  23.4606  36.9977  44.6204

          k = 0.0000-0.4000 0.5000 (   620 PWs)   bands (ev):

   -64.7968 -31.3347 -30.8045 -30.5569  17.2854  19.2804  21.8879  22.4049
    24.2049  24.2461  33.4287  43.5438

          k =-0.1000 0.1000 0.1000 (   621 PWs)   bands (ev):

   -64.9548 -30.6678 -30.5530 -30.5530  14.3462  20.4809  20.4809  21.1977
    22.2632  22.2632  48.0441  48.0441

          k =-0.1000-0.1000 0.3000 (   618 PWs)   bands (ev):

   -64.8956 -30.8775 -30.6562 -30.5911  16.0093  20.2577  20.2958  21.6663
    22.0672  22.7083  43.6924  45.4965

          k =-0.1000-0.2000 0.4000 (   619 PWs)   bands (ev):

   -64.8424 -31.0866 -30.7472 -30.6005  17.3456  19.7596  20.2203  21.8756
    22.8202  23.5227  39.5636  42.9335

          k =-0.1000-0.3000 0.5000 (   616 PWs)   bands (ev):

   -64.7990 -31.2533 -30.8260 -30.6019  17.7133  19.5151  20.6634  22.2169
    23.3289  25.2735  35.1893  41.5293

          k =-0.1000 0.6000-0.4000 (   612 PWs)   bands (ev):

   -64.7824 -31.3159 -30.8566 -30.6019  17.6483  19.4310  20.9717  22.2638
    23.7373  26.6369  32.8507  41.0203

          k =-0.2000 0.2000 0.1000 (   620 PWs)   bands (ev):

   -64.9107 -30.8646 -30.6186 -30.5556  15.6303  20.0574  20.2479  22.1004
    22.1435  22.3775  43.9637  46.1970

          k =-0.2000-0.2000 0.5000 (   617 PWs)   bands (ev):

   -64.7999 -31.1885 -30.8603 -30.6278  18.2584  19.2576  20.2261  22.0595
    23.0370  25.6312  37.4491  38.6778

          k =-0.2000 0.7000-0.4000 (   612 PWs)   bands (ev):

   -64.7736 -31.2295 -30.9601 -30.6355  18.4013  19.3489  20.0645  22.3757
    23.2372  28.2895  33.7882  37.2805

          k =-0.3000 0.3000 0.1000 (   622 PWs)   bands (ev):

   -64.8558 -31.0927 -30.7108 -30.5588  17.0452  19.5980  20.3611  22.2400
    22.4985  23.3830  39.2929  44.3140

          k =-0.3000 0.2000 0.2000 (   618 PWs)   bands (ev):

   -64.8655 -31.0440 -30.6699 -30.5936  17.0358  19.7116  19.7847  22.1663
    22.5184  23.4555  41.4946  42.6631

          k =-0.3000 0.7000-0.3000 (   616 PWs)   bands (ev):

   -64.7639 -31.1184 -31.1184 -30.6443  19.0173  19.3541  19.3541  22.8559
    22.8559  31.6505  31.6505  35.0971

          k =-0.4000 0.4000 0.1000 (   618 PWs)   bands (ev):

   -64.8112 -31.2715 -30.7870 -30.5612  17.4256  19.2586  21.7227  22.4513
    22.6000  24.7893  34.9877  42.9373

          k =-0.4000 0.3000 0.2000 (   623 PWs)   bands (ev):

   -64.8201 -31.1889 -30.7762 -30.6102  17.9981  19.3365  20.1272  22.3191
    22.6725  25.2129  37.3601  40.6468

          k = 0.5000-0.5000 0.1000 (   616 PWs)   bands (ev):

   -64.7940 -31.3390 -30.8164 -30.5620  17.3759  19.1347  22.4834  22.6417
    22.6929  25.7398  32.8234  42.4357

          k = 0.5000-0.6000 0.2000 (   614 PWs)   bands (ev):

   -64.7919 -31.2641 -30.8576 -30.6162  17.9643  19.1627  21.0692  22.4893
    22.8069  27.2038  33.6011  39.7122

          k = 0.5000-0.7000 0.3000 (   615 PWs)   bands (ev):

   -64.7912 -31.2003 -30.8996 -30.6468  18.5615  19.2279  20.0886  22.4681
    22.7968  27.7416  35.3951  36.9269

          k = 0.4000-0.6000 0.3000 (   616 PWs)   bands (ev):

   -64.7801 -31.1677 -30.9882 -30.6571  18.5892  19.3021  20.1424  22.6032
    22.8025  30.0202  32.7981  36.0611

          k = 0.0000 0.0000 0.3000 (   615 PWs)   bands (ev):

   -64.9071 -30.7526 -30.6510 -30.6510  15.6456  20.7350  20.7350  21.2047
    21.3165  22.8045  45.3427  48.1317

          k = 0.0000-0.1000 0.4000 (   613 PWs)   bands (ev):

   -64.8561 -30.9448 -30.7318 -30.6716  16.9694  20.2117  20.5187  21.3268
    22.1943  23.2026  42.2031  45.5641

          k = 0.0000-0.2000 0.5000 (   619 PWs)   bands (ev):

   -64.8048 -31.1594 -30.8119 -30.6672  17.8049  19.8680  20.1716  21.8630
    23.3532  24.3070  37.5375  44.1620

          k = 0.0000-0.3000 0.6000 (   621 PWs)   bands (ev):

   -64.7730 -31.2916 -30.8612 -30.6628  17.7752  19.9563  20.1396  21.9698
    24.1708  26.4388  33.6447  42.9620

          k =-0.1000-0.1000 0.5000 (   619 PWs)   bands (ev):

   -64.8071 -31.0814 -30.8286 -30.7127  17.9630  19.4628  20.6877  21.5358
    22.9036  24.3342  40.0748  41.1487

          k =-0.1000-0.2000 0.6000 (   616 PWs)   bands (ev):

   -64.7672 -31.2069 -30.9194 -30.7149  18.2787  19.1896  20.4090  22.0078
    23.5685  26.7063  35.8485  39.3091

          k =-0.1000 0.7000-0.3000 (   616 PWs)   bands (ev):

   -64.7519 -31.2562 -30.9547 -30.7132  18.1431  19.4117  20.1641  22.1378
    23.9296  28.8145  33.0134  38.7496

          k =-0.2000 0.8000-0.3000 (   612 PWs)   bands (ev):

   -64.7438 -31.1859 -31.0569 -30.7228  18.6781  18.7890  20.0573  22.7053
    23.4351  29.9797  33.9743  35.7574

          k =-0.3000 0.3000 0.3000 (   625 PWs)   bands (ev):

   -64.8282 -31.1607 -30.6871 -30.6871  18.4296  19.3304  19.3304  22.4831
    22.4831  25.2625  39.7113  39.7113

          k = 0.6000-0.6000 0.3000 (   619 PWs)   bands (ev):

   -64.7979 -31.1954 -30.8211 -30.7010  18.7005  19.1259  20.0090  22.5674
    22.6318  27.5369  35.7288  38.5548

          k = 0.5000-0.5000 0.3000 (   620 PWs)   bands (ev):

   -64.7863 -31.1866 -30.8949 -30.7063  18.5533  19.0646  20.5710  22.6212
    22.6714  29.4246  33.0432  38.1531

          k = 0.5000-0.6000 0.4000 (   618 PWs)   bands (ev):

   -64.7842 -31.1079 -30.9314 -30.7676  18.9268  19.3322  19.8569  22.6538
    22.6877  30.4550  34.0829  35.7331

          k = 0.0000 0.0000 0.5000 (   619 PWs)   bands (ev):

   -64.8098 -30.9699 -30.8165 -30.8165  17.8297  19.6253  21.2493  21.2493
    22.2732  24.1055  42.9449  43.3492

          k = 0.0000-0.1000 0.6000 (   612 PWs)   bands (ev):

   -64.7632 -31.1106 -30.9000 -30.8412  18.2362  18.8746  21.2976  21.7636
    23.2046  25.9107  38.5548  41.1245

          k = 0.0000-0.2000 0.7000 (   615 PWs)   bands (ev):

   -64.7344 -31.2212 -30.9520 -30.8314  18.0577  18.7216  21.1807  21.9945
    24.0503  28.7544  34.2314  39.7714

          k =-0.1000-0.1000 0.7000 (   617 PWs)   bands (ev):

   -64.7277 -31.1615 -31.0071 -30.8673  18.2278  18.2606  21.3997  22.5066
    23.6491  28.5962  36.6517  37.3727

          k =-0.1000 0.8000-0.2000 (   623 PWs)   bands (ev):

   -64.7141 -31.1814 -31.0598 -30.8651  18.0052  18.2234  21.3242  22.8885
    23.8680  31.4030  33.4833  36.4819

          k = 0.5000-0.5000 0.5000 (   604 PWs)   bands (ev):

   -64.7814 -30.9428 -30.9428 -30.9428  19.4023  19.4023  19.4023  22.6898
    22.6898  33.6348  33.6348  33.6348

          k = 0.0000 0.0000 0.7000 (   622 PWs)   bands (ev):

   -64.7216 -31.0871 -30.9882 -30.9882  18.0008  18.1229  22.4190  22.4190
    23.2679  28.0497  38.6222  38.6222

          k = 0.0000-0.1000 0.8000 (   629 PWs)   bands (ev):

   -64.6957 -31.1510 -31.0418 -30.9996  17.6583  17.7444  22.6534  22.9208
    23.9326  31.0567  35.1911  37.0854

          k =-0.1000 0.9000-0.1000 (   625 PWs)   bands (ev):

   -64.6834 -31.1199 -31.1199 -31.0105  17.4868  17.4868  22.7956  23.7800
    23.7800  33.9581  33.9581  35.0328

          k = 0.0000 0.0000 0.9000 (   630 PWs)   bands (ev):

   -64.6717 -31.1120 -31.0967 -31.0967  17.2376  17.2528  23.7429  23.7429
    23.9018  33.4633  35.3861  35.3861

 ------ SPIN DOWN ----------


          k = 0.0000 0.0000 0.1000 (   615 PWs)   bands (ev):

   -62.6519 -28.2607 -28.2440 -28.2440  14.0780  22.1881  22.1881  22.2802
    24.6762  24.9069  49.1123  50.1599

          k = 0.0000-0.1000 0.2000 (   621 PWs)   bands (ev):

   -62.6163 -28.4209 -28.2966 -28.2495  15.0179  21.8889  22.1052  22.8721
    24.2940  25.0079  46.4507  48.9823

          k = 0.0000-0.2000 0.3000 (   616 PWs)   bands (ev):

   -62.5585 -28.6825 -28.3806 -28.2497  16.6078  21.3888  21.8608  23.9595
    24.1656  25.1184  42.2817  46.7216

          k = 0.0000-0.3000 0.4000 (   619 PWs)   bands (ev):

   -62.5002 -28.9397 -28.4642 -28.2499  17.9809  20.9174  22.1430  24.4004
    25.1893  25.2943  37.8720  44.7687

          k = 0.0000-0.4000 0.5000 (   620 PWs)   bands (ev):

   -62.4640 -29.0958 -28.5157 -28.2500  18.3504  20.6391  23.2193  24.5827
    25.7372  26.0478  34.5699  43.6599

          k =-0.1000 0.1000 0.1000 (   621 PWs)   bands (ev):

   -62.6339 -28.3704 -28.2451 -28.2451  14.5571  21.9872  21.9872  22.7572
    24.7343  24.7343  48.1998  48.1998

          k =-0.1000-0.1000 0.3000 (   618 PWs)   bands (ev):

   -62.5703 -28.5991 -28.3565 -28.2865  16.2801  21.7359  21.7860  23.6686
    23.8821  25.2250  44.2068  45.9045

          k =-0.1000-0.2000 0.4000 (   619 PWs)   bands (ev):

   -62.5131 -28.8263 -28.4549 -28.2968  17.8589  21.2263  21.5751  23.9446
    24.8479  25.5551  40.3031  43.4116

          k =-0.1000-0.3000 0.5000 (   616 PWs)   bands (ev):

   -62.4665 -29.0071 -28.5399 -28.2985  18.7107  20.8930  21.9291  24.2899
    25.4040  26.8121  36.1548  42.0131

          k =-0.1000 0.6000-0.4000 (   612 PWs)   bands (ev):

   -62.4486 -29.0750 -28.5728 -28.2986  18.7951  20.7871  22.3419  24.3975
    25.6697  27.8638  34.0200  41.4966

          k =-0.2000 0.2000 0.1000 (   620 PWs)   bands (ev):

   -62.5865 -28.5849 -28.3159 -28.2480  15.8758  21.5120  21.7235  23.7166
    24.4905  24.8653  44.4377  46.4770

          k =-0.2000-0.2000 0.5000 (   617 PWs)   bands (ev):

   -62.4675 -28.9365 -28.5781 -28.3261  19.1091  20.7403  21.4849  24.0876
    25.2221  27.1815  38.3009  39.3072

          k =-0.2000 0.7000-0.4000 (   612 PWs)   bands (ev):

   -62.4392 -28.9807 -28.6865 -28.3344  19.5840  20.7207  21.3904  24.4245
    25.2833  29.5123  34.7961  37.9667

          k =-0.3000 0.3000 0.1000 (   622 PWs)   bands (ev):

   -62.5275 -28.8329 -28.4153 -28.2518  17.5215  20.9924  21.6043  24.5083
    25.0087  25.0193  40.0268  44.5930

          k =-0.3000 0.2000 0.2000 (   618 PWs)   bands (ev):

   -62.5379 -28.7798 -28.3718 -28.2893  17.3736  21.1486  21.1568  24.4935
    24.9574  25.1021  42.0847  43.1457

          k =-0.3000 0.7000-0.3000 (   616 PWs)   bands (ev):

   -62.4288 -28.8592 -28.8592 -28.3437  20.2448  20.7278  20.7278  24.8851
    24.8851  32.6931  32.6931  35.8899

          k =-0.4000 0.4000 0.1000 (   618 PWs)   bands (ev):

   -62.4795 -29.0273 -28.4974 -28.2546  18.3740  20.6094  22.5212  24.6707
    25.1566  26.3136  35.9724  43.1698

          k =-0.4000 0.3000 0.2000 (   623 PWs)   bands (ev):

   -62.4891 -28.9370 -28.4869 -28.3074  18.7495  20.6884  21.2276  24.6056
    25.1628  26.7139  38.1509  41.1711

          k = 0.5000-0.5000 0.1000 (   616 PWs)   bands (ev):

   -62.4611 -29.1005 -28.5289 -28.2556  18.4635  20.4700  23.3954  24.7411
    25.2146  27.0247  34.0179  42.6444

          k = 0.5000-0.6000 0.2000 (   614 PWs)   bands (ev):

   -62.4588 -29.0189 -28.5749 -28.3142  19.0498  20.4675  22.0689  24.7731
    25.2468  28.4083  34.6417  40.2245

          k = 0.5000-0.7000 0.3000 (   615 PWs)   bands (ev):

   -62.4579 -28.9492 -28.6216 -28.3471  19.6260  20.5266  21.1445  24.7616
    25.2176  29.0033  36.2469  37.6136

          k = 0.4000-0.6000 0.3000 (   616 PWs)   bands (ev):

   -62.4460 -28.9137 -28.7179 -28.3582  19.7513  20.5495  21.2815  24.9147
    25.1632  31.0414  33.8021  36.7815

          k = 0.0000 0.0000 0.3000 (   615 PWs)   bands (ev):

   -62.5827 -28.4644 -28.3508 -28.3508  15.8947  22.2219  22.2219  22.8922
    23.4537  25.3365  45.7298  48.5199

          k = 0.0000-0.1000 0.4000 (   613 PWs)   bands (ev):

   -62.5280 -28.6727 -28.4379 -28.3737  17.3551  21.9203  21.9758  23.1721
    23.8225  25.6277  42.8578  45.9560

          k = 0.0000-0.2000 0.5000 (   619 PWs)   bands (ev):

   -62.4729 -28.9052 -28.5243 -28.3693  18.6332  21.4232  21.5904  23.7084
    25.0710  26.2628  38.3867  44.4812

          k = 0.0000-0.3000 0.6000 (   621 PWs)   bands (ev):

   -62.4387 -29.0482 -28.5773 -28.3647  18.9698  21.3520  21.6156  23.9318
    25.9659  27.7616  34.7235  43.5177

          k =-0.1000-0.1000 0.5000 (   619 PWs)   bands (ev):

   -62.4753 -28.8205 -28.5430 -28.4181  18.6492  21.1886  22.1184  23.2588
    24.6723  26.3160  40.8734  41.7269

          k =-0.1000-0.2000 0.6000 (   616 PWs)   bands (ev):

   -62.4325 -28.9559 -28.6414 -28.4204  19.4470  20.7230  21.8484  23.7943
    25.3947  28.1320  36.7529  39.9657

          k =-0.1000 0.7000-0.3000 (   616 PWs)   bands (ev):

   -62.4161 -29.0091 -28.6795 -28.4186  19.5023  20.9045  21.5733  23.9636
    25.7467  29.9374  34.0901  39.3981

          k =-0.2000 0.8000-0.3000 (   612 PWs)   bands (ev):

   -62.4075 -28.9322 -28.7913 -28.4285  20.1793  20.2294  21.4339  24.4833
    25.2571  31.1092  34.9567  36.4811

          k =-0.3000 0.3000 0.3000 (   625 PWs)   bands (ev):

   -62.4977 -28.9062 -28.3909 -28.3909  18.8945  20.6660  20.6660  24.9353
    24.9353  26.7637  40.3150  40.3150

          k = 0.6000-0.6000 0.3000 (   619 PWs)   bands (ev):

   -62.4651 -28.9440 -28.5364 -28.4063  19.7184  20.3886  20.9684  24.9945
    25.1771  28.8000  36.5341  39.1445

          k = 0.5000-0.5000 0.3000 (   620 PWs)   bands (ev):

   -62.4526 -28.9345 -28.6163 -28.4123  19.6645  20.3006  21.5465  25.0415
    25.2517  30.4142  34.0598  38.7335

          k = 0.5000-0.6000 0.4000 (   618 PWs)   bands (ev):

   -62.4502 -28.8488 -28.6568 -28.4788  20.0830  20.4953  20.8772  25.1545
    25.2378  31.4581  34.9089  36.4671

          k = 0.0000 0.0000 0.5000 (   619 PWs)   bands (ev):

   -62.4784 -28.7008 -28.5295 -28.5295  18.4650  21.5747  22.7255  22.7255
    23.9184  26.2230  43.6993  43.9415

          k = 0.0000-0.1000 0.6000 (   612 PWs)   bands (ev):

   -62.4284 -28.8516 -28.6198 -28.5571  19.3112  20.6264  22.7794  23.3502
    24.9110  27.4726  39.3231  41.7052

          k = 0.0000-0.2000 0.7000 (   615 PWs)   bands (ev):

   -62.3975 -28.9705 -28.6758 -28.5470  19.5165  20.2650  22.6542  23.6433
    25.8349  29.8719  35.1579  40.3094

          k =-0.1000-0.1000 0.7000 (   617 PWs)   bands (ev):

   -62.3903 -28.9056 -28.7361 -28.5850  19.6109  19.9313  22.8816  24.1202
    25.4046  29.7385  37.4654  37.9903

          k =-0.1000 0.8000-0.2000 (   623 PWs)   bands (ev):

   -62.3758 -28.9263 -28.7935 -28.5824  19.5826  19.7763  22.7716  24.5529
    25.6369  32.3342  34.3679  37.1237

          k = 0.5000-0.5000 0.5000 (   604 PWs)   bands (ev):

   -62.4473 -28.6695 -28.6695 -28.6695  20.5105  20.5105  20.5105  25.2747
    25.2747  34.4457  34.4457  34.4457

          k = 0.0000 0.0000 0.7000 (   622 PWs)   bands (ev):

   -62.3838 -28.8256 -28.7151 -28.7151  19.3706  19.8382  23.9724  23.9724
    24.9911  29.1801  39.1600  39.1600

          k = 0.0000-0.1000 0.8000 (   629 PWs)   bands (ev):

   -62.3561 -28.8928 -28.7732 -28.7281  19.2341  19.3265  24.2519  24.5307
    25.7076  31.8850  35.8392  37.5516

          k =-0.1000 0.9000-0.1000 (   625 PWs)   bands (ev):

   -62.3430 -28.8584 -28.8584 -28.7395  19.0732  19.0732  24.3938  25.5230
    25.5230  34.5889  34.5889  35.5331

          k = 0.0000 0.0000 0.9000 (   630 PWs)   bands (ev):

   -62.3305 -28.8495 -28.8326 -28.8326  18.8240  18.8350  25.4771  25.4771
    25.6780  33.9703  35.7411  35.7411

     the Fermi energy is    23.4854 ev

!    total energy              =    -254.34307925 Ry
     estimated scf accuracy    <          2.9E-09 Ry
     smearing contrib. (-TS)   =      -0.00026948 Ry
     internal energy E=F+TS    =    -254.34280976 Ry

     The total energy is F=E-TS. E is the sum of the following terms:
     one-electron contribution =     -91.61205058 Ry
     hartree contribution      =      58.57513144 Ry
     xc contribution           =     -34.97713801 Ry
     ewald contribution        =    -186.32875261 Ry

     total magnetization       =     1.84 Bohr mag/cell
     absolute magnetization    =     1.90 Bohr mag/cell

     convergence has been achieved in  11 iterations

     Writing output data file ./tempdir/fe.save/

     init_run     :      0.69s CPU      0.72s WALL (       1 calls)
     electrons    :      7.23s CPU      7.49s WALL (       1 calls)

     Called by init_run:
     wfcinit      :      0.15s CPU      0.16s WALL (       1 calls)
     potinit      :      0.09s CPU      0.09s WALL (       1 calls)
     hinit0       :      0.39s CPU      0.39s WALL (       1 calls)

     Called by electrons:
     c_bands      :      3.92s CPU      3.97s WALL (      11 calls)
     sum_band     :      1.69s CPU      1.78s WALL (      11 calls)
     v_of_rho     :      0.99s CPU      1.03s WALL (      12 calls)
     newd         :      0.62s CPU      0.71s WALL (      12 calls)
     mix_rho      :      0.07s CPU      0.07s WALL (      11 calls)

     Called by c_bands:
     init_us_2    :      0.11s CPU      0.11s WALL (    1012 calls)
     cegterg      :      3.39s CPU      3.43s WALL (     484 calls)

     Called by *egterg:
     cdiaghg      :      0.17s CPU      0.17s WALL (    1691 calls)
     h_psi        :      3.02s CPU      3.06s WALL (    1735 calls)
     s_psi        :      0.05s CPU      0.05s WALL (    1735 calls)
     g_psi        :      0.02s CPU      0.02s WALL (    1207 calls)

     Called by h_psi:
     h_psi:calbec :      0.06s CPU      0.07s WALL (    1735 calls)
     vloc_psi     :      2.89s CPU      2.93s WALL (    1735 calls)
     add_vuspsi   :      0.05s CPU      0.05s WALL (    1735 calls)

     General routines
     calbec       :      0.09s CPU      0.09s WALL (    2219 calls)
     fft          :      0.41s CPU      0.41s WALL (     294 calls)
     ffts         :      0.01s CPU      0.01s WALL (      46 calls)
     fftw         :      3.12s CPU      3.16s WALL (   34944 calls)
     interpolate  :      0.05s CPU      0.05s WALL (      24 calls)

     Parallel routines

     PWSCF        :      8.02s CPU      8.31s WALL


   This run was terminated on:   0:18:11  19Apr2021            

=------------------------------------------------------------------------------=
   JOB DONE.
=------------------------------------------------------------------------------=
