
     Program PWSCF v.6.7GPU starts on 19Apr2021 at  0:17:25 

     This program is part of the open-source Quantum ESPRESSO suite
     for quantum simulation of materials; please cite
         "P. Giannozzi et al., J. Phys.:Condens. Matter 21 395502 (2009);
         "P. Giannozzi et al., J. Phys.:Condens. Matter 29 465901 (2017);
         "P. Giannozzi et al., J. Chem. Phys. 152 154105 (2020);
          URL http://www.quantum-espresso.org", 
     in publications or presentations arising from this work. More details at
     http://www.quantum-espresso.org/quote

     Parallel version (MPI & OpenMP), running on       2 processor cores
     Number of MPI processes:                 2
     Threads/MPI process:                     1

     MPI processes distributed on     1 nodes
     K-points division:     npool     =       2
     Reading input from fe.scf.4.5.in

     Current dimensions of program PWSCF are:
     Max number of different atomic species (ntypx) = 10
     Max number of k-points (npk) =  40000
     Max angular momentum in pseudopotentials (lmaxx) =  3

     Subspace diagonalization in iterative solution of the eigenvalue problem:
     a serial algorithm will be used


     G-vector sticks info
     --------------------
     sticks:   dense  smooth     PW     G-vecs:    dense   smooth      PW
     Sum         969     315     99                19069     3559     675

     Using Slab Decomposition



     bravais-lattice index     =            3
     lattice parameter (alat)  =       4.5000  a.u.
     unit-cell volume          =      45.5625 (a.u.)^3
     number of atoms/cell      =            1
     number of atomic types    =            1
     number of electrons       =        16.00
     number of Kohn-Sham states=           12
     kinetic-energy cutoff     =      70.0000  Ry
     charge density cutoff     =     850.0000  Ry
     scf convergence threshold =      1.0E-08
     mixing beta               =       0.7000
     number of iterations used =            8  plain     mixing
     Exchange-correlation= PBE
                           (   1   4   3   4   0   0   0)

     celldm(1)=   4.500000  celldm(2)=   0.000000  celldm(3)=   0.000000
     celldm(4)=   0.000000  celldm(5)=   0.000000  celldm(6)=   0.000000

     crystal axes: (cart. coord. in units of alat)
               a(1) = (   0.500000   0.500000   0.500000 )  
               a(2) = (  -0.500000   0.500000   0.500000 )  
               a(3) = (  -0.500000  -0.500000   0.500000 )  

     reciprocal axes: (cart. coord. in units 2 pi/alat)
               b(1) = (  1.000000  0.000000  1.000000 )  
               b(2) = ( -1.000000  1.000000  0.000000 )  
               b(3) = (  0.000000 -1.000000  1.000000 )  


     PseudoPot. # 1 for Fe read from file:
     /home/pietro/repositories/materials-for-max-qe2021-online-school/pseudo/Fe.pbe-spn-rrkjus_psl.0.2.1.UPF
     MD5 check sum: f9af58635850a145d9bd408d58feeb93
     Pseudo is Ultrasoft + core correction, Zval = 16.0
     Generated using "atomic" code by A. Dal Corso  v.5.0.2 svn rev. 9415
     Using radial grid of 1191 points,  6 beta functions with: 
                l(1) =   0
                l(2) =   0
                l(3) =   1
                l(4) =   1
                l(5) =   2
                l(6) =   2
     Q(r) pseudized with 0 coefficients 


     atomic species   valence    mass     pseudopotential
        Fe            16.00    55.84500     Fe( 1.00)

     Starting magnetic structure 
     atomic species   magnetization
        Fe           0.700

     48 Sym. Ops., with inversion, found



   Cartesian axes

     site n.     atom                  positions (alat units)
         1           Fe  tau(   1) = (   0.0000000   0.0000000   0.0000000  )

     number of k points=    44  Marzari-Vanderbilt smearing, width (Ry)=  0.0200
                       cart. coord. in units 2pi/alat
        k(    1) = (   0.0000000   0.0000000   0.1000000), wk =   0.0060000
        k(    2) = (   0.0000000  -0.1000000   0.2000000), wk =   0.0240000
        k(    3) = (   0.0000000  -0.2000000   0.3000000), wk =   0.0240000
        k(    4) = (   0.0000000  -0.3000000   0.4000000), wk =   0.0240000
        k(    5) = (   0.0000000  -0.4000000   0.5000000), wk =   0.0240000
        k(    6) = (  -0.1000000   0.1000000   0.1000000), wk =   0.0080000
        k(    7) = (  -0.1000000  -0.1000000   0.3000000), wk =   0.0240000
        k(    8) = (  -0.1000000  -0.2000000   0.4000000), wk =   0.0480000
        k(    9) = (  -0.1000000  -0.3000000   0.5000000), wk =   0.0480000
        k(   10) = (  -0.1000000   0.6000000  -0.4000000), wk =   0.0240000
        k(   11) = (  -0.2000000   0.2000000   0.1000000), wk =   0.0240000
        k(   12) = (  -0.2000000  -0.2000000   0.5000000), wk =   0.0240000
        k(   13) = (  -0.2000000   0.7000000  -0.4000000), wk =   0.0480000
        k(   14) = (  -0.3000000   0.3000000   0.1000000), wk =   0.0240000
        k(   15) = (  -0.3000000   0.2000000   0.2000000), wk =   0.0240000
        k(   16) = (  -0.3000000   0.7000000  -0.3000000), wk =   0.0080000
        k(   17) = (  -0.4000000   0.4000000   0.1000000), wk =   0.0240000
        k(   18) = (  -0.4000000   0.3000000   0.2000000), wk =   0.0480000
        k(   19) = (   0.5000000  -0.5000000   0.1000000), wk =   0.0120000
        k(   20) = (   0.5000000  -0.6000000   0.2000000), wk =   0.0480000
        k(   21) = (   0.5000000  -0.7000000   0.3000000), wk =   0.0240000
        k(   22) = (   0.4000000  -0.6000000   0.3000000), wk =   0.0240000
        k(   23) = (   0.0000000   0.0000000   0.3000000), wk =   0.0060000
        k(   24) = (   0.0000000  -0.1000000   0.4000000), wk =   0.0240000
        k(   25) = (   0.0000000  -0.2000000   0.5000000), wk =   0.0240000
        k(   26) = (   0.0000000  -0.3000000   0.6000000), wk =   0.0240000
        k(   27) = (  -0.1000000  -0.1000000   0.5000000), wk =   0.0240000
        k(   28) = (  -0.1000000  -0.2000000   0.6000000), wk =   0.0480000
        k(   29) = (  -0.1000000   0.7000000  -0.3000000), wk =   0.0240000
        k(   30) = (  -0.2000000   0.8000000  -0.3000000), wk =   0.0240000
        k(   31) = (  -0.3000000   0.3000000   0.3000000), wk =   0.0080000
        k(   32) = (   0.6000000  -0.6000000   0.3000000), wk =   0.0240000
        k(   33) = (   0.5000000  -0.5000000   0.3000000), wk =   0.0120000
        k(   34) = (   0.5000000  -0.6000000   0.4000000), wk =   0.0240000
        k(   35) = (   0.0000000   0.0000000   0.5000000), wk =   0.0060000
        k(   36) = (   0.0000000  -0.1000000   0.6000000), wk =   0.0240000
        k(   37) = (   0.0000000  -0.2000000   0.7000000), wk =   0.0240000
        k(   38) = (  -0.1000000  -0.1000000   0.7000000), wk =   0.0240000
        k(   39) = (  -0.1000000   0.8000000  -0.2000000), wk =   0.0240000
        k(   40) = (   0.5000000  -0.5000000   0.5000000), wk =   0.0020000
        k(   41) = (   0.0000000   0.0000000   0.7000000), wk =   0.0060000
        k(   42) = (   0.0000000  -0.1000000   0.8000000), wk =   0.0240000
        k(   43) = (  -0.1000000   0.9000000  -0.1000000), wk =   0.0080000
        k(   44) = (   0.0000000   0.0000000   0.9000000), wk =   0.0060000

     Dense  grid:    19069 G-vectors     FFT dimensions: (  40,  40,  40)

     Smooth grid:     3559 G-vectors     FFT dimensions: (  24,  24,  24)

     Estimated max dynamical RAM per process >      54.29 MB

     Estimated total dynamical RAM >      99.26 MB

     Check: negative core charge=   -0.000013
     Generating pointlists ...
     new r_m :   0.3572 (alat units)  1.6076 (a.u.) for type    1

     Initial potential from superposition of free atoms

     starting charge   15.99956, renormalised to   16.00000
     Starting wfcs are   13 randomized atomic wfcs

     total cpu time spent up to now is        0.7 secs

     Self-consistent Calculation

     iteration #  1     ecut=    70.00 Ry     beta= 0.70
     Davidson diagonalization with overlap
     ethr =  1.00E-02,  avg # of iterations =  4.5

     negative rho (up, down):  0.000E+00 1.319E-05

     total cpu time spent up to now is        1.3 secs

     total energy              =    -253.80533854 Ry
     estimated scf accuracy    <       1.77542483 Ry

     total magnetization       =     3.23 Bohr mag/cell
     absolute magnetization    =     3.23 Bohr mag/cell

     iteration #  2     ecut=    70.00 Ry     beta= 0.70
     Davidson diagonalization with overlap
     ethr =  1.00E-02,  avg # of iterations =  1.0

     negative rho (up, down):  0.000E+00 1.162E-05

     total cpu time spent up to now is        1.7 secs

     total energy              =    -254.07053762 Ry
     estimated scf accuracy    <       0.28555148 Ry

     total magnetization       =     2.52 Bohr mag/cell
     absolute magnetization    =     2.56 Bohr mag/cell

     iteration #  3     ecut=    70.00 Ry     beta= 0.70
     Davidson diagonalization with overlap
     ethr =  1.78E-03,  avg # of iterations =  1.6

     negative rho (up, down):  0.000E+00 2.362E-06

     total cpu time spent up to now is        2.2 secs

     total energy              =    -254.12659585 Ry
     estimated scf accuracy    <       0.07549428 Ry

     total magnetization       =     1.55 Bohr mag/cell
     absolute magnetization    =     1.62 Bohr mag/cell

     iteration #  4     ecut=    70.00 Ry     beta= 0.70
     Davidson diagonalization with overlap
     ethr =  4.72E-04,  avg # of iterations =  1.8

     total cpu time spent up to now is        2.7 secs

     total energy              =    -254.13985919 Ry
     estimated scf accuracy    <       0.00890616 Ry

     total magnetization       =     1.42 Bohr mag/cell
     absolute magnetization    =     1.48 Bohr mag/cell

     iteration #  5     ecut=    70.00 Ry     beta= 0.70
     Davidson diagonalization with overlap
     ethr =  5.57E-05,  avg # of iterations =  2.4

     total cpu time spent up to now is        3.2 secs

     total energy              =    -254.14349264 Ry
     estimated scf accuracy    <       0.00093645 Ry

     total magnetization       =     1.19 Bohr mag/cell
     absolute magnetization    =     1.23 Bohr mag/cell

     iteration #  6     ecut=    70.00 Ry     beta= 0.70
     Davidson diagonalization with overlap
     ethr =  5.85E-06,  avg # of iterations =  2.9

     total cpu time spent up to now is        3.8 secs

     total energy              =    -254.14461474 Ry
     estimated scf accuracy    <       0.00005156 Ry

     total magnetization       =     1.05 Bohr mag/cell
     absolute magnetization    =     1.07 Bohr mag/cell

     iteration #  7     ecut=    70.00 Ry     beta= 0.70
     Davidson diagonalization with overlap
     ethr =  3.22E-07,  avg # of iterations =  3.3

     total cpu time spent up to now is        4.3 secs

     total energy              =    -254.14466064 Ry
     estimated scf accuracy    <       0.00002304 Ry

     total magnetization       =     1.03 Bohr mag/cell
     absolute magnetization    =     1.05 Bohr mag/cell

     iteration #  8     ecut=    70.00 Ry     beta= 0.70
     Davidson diagonalization with overlap
     ethr =  1.44E-07,  avg # of iterations =  2.1

     total cpu time spent up to now is        4.8 secs

     total energy              =    -254.14467581 Ry
     estimated scf accuracy    <       0.00000299 Ry

     total magnetization       =     1.03 Bohr mag/cell
     absolute magnetization    =     1.04 Bohr mag/cell

     iteration #  9     ecut=    70.00 Ry     beta= 0.70
     Davidson diagonalization with overlap
     ethr =  1.87E-08,  avg # of iterations =  2.0

     total cpu time spent up to now is        5.3 secs

     total energy              =    -254.14467791 Ry
     estimated scf accuracy    <       0.00000007 Ry

     total magnetization       =     1.02 Bohr mag/cell
     absolute magnetization    =     1.04 Bohr mag/cell

     iteration # 10     ecut=    70.00 Ry     beta= 0.70
     Davidson diagonalization with overlap
     ethr =  4.30E-10,  avg # of iterations =  4.2

     total cpu time spent up to now is        6.0 secs

     total energy              =    -254.14467795 Ry
     estimated scf accuracy    <       0.00000001 Ry

     total magnetization       =     1.02 Bohr mag/cell
     absolute magnetization    =     1.04 Bohr mag/cell

     iteration # 11     ecut=    70.00 Ry     beta= 0.70
     Davidson diagonalization with overlap
     ethr =  8.34E-11,  avg # of iterations =  2.6

     Magnetic moment per site  (integrated on atomic sphere of radius R)
     atom   1 (R=0.357)  charge= 13.9534  magn=  1.0030

     total cpu time spent up to now is        6.5 secs

     End of self-consistent calculation

 ------ SPIN UP ------------


          k = 0.0000 0.0000 0.1000 (   442 PWs)   bands (ev):

   -55.3817 -20.1735 -20.1262 -20.1262  22.4256  29.9099  29.9099  30.0356
    32.4926  32.8322  62.7246  63.9293

          k = 0.0000-0.1000 0.2000 (   443 PWs)   bands (ev):

   -55.2709 -20.5747 -20.2507 -20.1423  23.6070  29.4710  29.8054  30.9234
    31.9891  33.0020  60.3251  63.0289

          k = 0.0000-0.2000 0.3000 (   446 PWs)   bands (ev):

   -55.0887 -21.2257 -20.4495 -20.1484  25.1605  28.7466  29.7122  32.0446
    32.5439  33.2201  56.4115  60.4728

          k = 0.0000-0.3000 0.4000 (   453 PWs)   bands (ev):

   -54.9025 -21.8580 -20.6437 -20.1549  25.4298  28.0722  30.9479  32.6687
    33.7683  34.3670  51.7630  58.1061

          k = 0.0000-0.4000 0.5000 (   449 PWs)   bands (ev):

   -54.7854 -22.2396 -20.7616 -20.1584  25.0444  27.6774  32.1018  32.8508
    35.4502  35.6360  48.0751  56.7290

          k =-0.1000 0.1000 0.1000 (   441 PWs)   bands (ev):

   -55.3254 -20.4420 -20.1307 -20.1307  23.0406  29.6062  29.6062  30.7707
    32.5939  32.5939  62.1377  62.1377

          k =-0.1000-0.1000 0.3000 (   447 PWs)   bands (ev):

   -55.1267 -21.0175 -20.3986 -20.2331  25.0215  29.2368  29.3373  31.5429
    32.1562  33.4106  58.0753  60.5358

          k =-0.1000-0.2000 0.4000 (   451 PWs)   bands (ev):

   -54.9451 -21.5756 -20.6348 -20.2626  26.0737  28.4695  29.4497  31.8969
    33.5146  34.6036  54.3058  57.6191

          k =-0.1000-0.3000 0.5000 (   453 PWs)   bands (ev):

   -54.7955 -22.0195 -20.8353 -20.2709  25.7902  28.0765  30.2602  32.4889
    34.3110  37.1043  49.8121  55.9098

          k =-0.1000 0.6000-0.4000 (   449 PWs)   bands (ev):

   -54.7376 -22.1867 -20.9118 -20.2729  25.5239  27.9377  30.6805  32.5827
    34.8957  38.7423  47.3990  55.2899

          k =-0.2000 0.2000 0.1000 (   447 PWs)   bands (ev):

   -55.1764 -20.9779 -20.3005 -20.1426  24.5910  28.9156  29.2623  32.2443
    32.3638  32.8012  58.5290  60.4941

          k =-0.2000-0.2000 0.5000 (   452 PWs)   bands (ev):

   -54.7995 -21.8417 -20.9467 -20.3292  26.7894  27.7517  29.4665  32.1896
    33.8825  37.6668  51.8846  53.6222

          k =-0.2000 0.7000-0.4000 (   455 PWs)   bands (ev):

   -54.7085 -21.9511 -21.2143 -20.3488  26.6330  27.9163  29.2432  32.7276
    34.1427  41.0457  48.0497  51.9591

          k =-0.3000 0.3000 0.1000 (   452 PWs)   bands (ev):

   -54.9887 -21.5929 -20.5361 -20.1580  25.6792  28.1839  29.8434  32.5516
    33.0288  34.2695  54.0440  58.2868

          k =-0.3000 0.2000 0.2000 (   447 PWs)   bands (ev):

   -55.0215 -21.4569 -20.4451 -20.2452  26.1180  28.3954  28.5869  32.4229
    33.0633  34.4023  55.9725  57.2868

          k =-0.3000 0.7000-0.3000 (   460 PWs)   bands (ev):

   -54.6752 -21.6484 -21.6484 -20.3683  27.3836  28.1026  28.1026  33.5083
    33.5083  45.1627  45.1627  49.9285

          k =-0.4000 0.4000 0.1000 (   452 PWs)   bands (ev):

   -54.8339 -22.0740 -20.7284 -20.1692  25.3984  27.6533  31.9948  32.9140
    33.2287  36.3645  49.6265  56.5021

          k =-0.4000 0.3000 0.2000 (   453 PWs)   bands (ev):

   -54.8641 -21.8463 -20.7259 -20.2957  26.4686  27.8272  29.5532  32.6852
    33.3474  37.0237  51.8901  55.0691

          k = 0.5000-0.5000 0.1000 (   446 PWs)   bands (ev):

   -54.7740 -22.2544 -20.8011 -20.1736  25.1517  27.4615  32.9948  33.2614
    33.3132  37.5373  47.4267  55.8292

          k = 0.5000-0.6000 0.2000 (   453 PWs)   bands (ev):

   -54.7656 -22.0555 -20.9364 -20.3171  26.0520  27.5613  30.9076  32.9896
    33.5569  39.5512  48.0208  53.9315

          k = 0.5000-0.7000 0.3000 (   456 PWs)   bands (ev):

   -54.7626 -21.8803 -21.0715 -20.3930  26.8668  27.8186  29.4258  32.9374
    33.5428  40.3877  49.4436  51.6798

          k = 0.4000-0.6000 0.3000 (   457 PWs)   bands (ev):

   -54.7236 -21.7981 -21.3093 -20.4209  26.8293  27.9727  29.4331  33.1757
    33.5216  43.0458  46.7118  50.6984

          k = 0.0000 0.0000 0.3000 (   446 PWs)   bands (ev):

   -55.1666 -20.6987 -20.3808 -20.3808  24.6506  30.0152  30.0152  30.7433
    30.9205  33.5842  59.2622  63.6646

          k = 0.0000-0.1000 0.4000 (   447 PWs)   bands (ev):

   -54.9952 -21.2060 -20.5870 -20.4456  26.0070  29.1769  29.6551  30.9815
    32.3227  34.3015  56.8800  60.3212

          k = 0.0000-0.2000 0.5000 (   448 PWs)   bands (ev):

   -54.8204 -21.7675 -20.7890 -20.4399  26.2007  28.9112  29.0968  31.8733
    34.1840  35.9476  52.3445  58.2136

          k = 0.0000-0.3000 0.6000 (   446 PWs)   bands (ev):

   -54.7105 -22.1125 -20.9114 -20.4314  25.6985  28.7557  29.3689  32.0592
    35.5099  38.5972  48.2170  57.2223

          k =-0.1000-0.1000 0.5000 (   452 PWs)   bands (ev):

   -54.8301 -21.5594 -20.8453 -20.5481  26.8130  27.9545  29.9789  31.2962
    33.4972  36.0122  54.8303  56.4148

          k =-0.1000-0.2000 0.6000 (   448 PWs)   bands (ev):

   -54.6943 -21.8815 -21.0837 -20.5530  26.5134  27.8167  29.5200  32.0760
    34.5813  39.1411  50.4615  54.2407

          k =-0.1000 0.7000-0.3000 (   448 PWs)   bands (ev):

   -54.6419 -22.0075 -21.1754 -20.5490  26.1484  28.1908  29.1070  32.2999
    35.1469  41.6194  47.4168  53.5733

          k =-0.2000 0.8000-0.3000 (   450 PWs)   bands (ev):

   -54.6156 -21.8149 -21.4602 -20.5644  26.8911  27.2320  28.9729  33.1915
    34.3721  43.2325  48.0582  50.5167

          k =-0.3000 0.3000 0.3000 (   462 PWs)   bands (ev):

   -54.8904 -21.7662 -20.5037 -20.5037  27.7525  27.8382  27.8382  33.0007
    33.0007  37.1154  54.0131  54.0131

          k = 0.6000-0.6000 0.3000 (   458 PWs)   bands (ev):

   -54.7833 -21.8696 -20.8630 -20.5496  27.1818  27.5555  29.4084  33.1487
    33.2868  40.1292  49.9693  52.6483

          k = 0.5000-0.5000 0.3000 (   456 PWs)   bands (ev):

   -54.7422 -21.8551 -21.0550 -20.5675  26.9309  27.4742  30.1285  33.2438
    33.3676  42.2520  47.2444  52.1567

          k = 0.5000-0.6000 0.4000 (   457 PWs)   bands (ev):

   -54.7334 -21.6442 -21.1714 -20.7309  27.3588  28.0601  29.0317  33.3141
    33.3876  43.6501  47.8421  50.0936

          k = 0.0000 0.0000 0.5000 (   442 PWs)   bands (ev):

   -54.8418 -21.2810 -20.8057 -20.8057  26.7848  28.1458  30.8353  30.8353
    32.4226  35.7486  57.2868  59.2984

          k = 0.0000-0.1000 0.6000 (   441 PWs)   bands (ev):

   -54.6859 -21.6274 -21.0199 -20.8819  26.6500  27.1410  30.8951  31.6625
    33.9297  38.1846  53.4957  56.6942

          k = 0.0000-0.2000 0.7000 (   446 PWs)   bands (ev):

   -54.5882 -21.9033 -21.1497 -20.8620  25.9325  27.0670  30.7013  32.0499
    35.3088  41.6454  48.6744  54.9960

          k =-0.1000-0.1000 0.7000 (   447 PWs)   bands (ev):

   -54.5678 -21.7409 -21.3051 -20.9407  26.0911  26.4057  31.0656  32.8360
    34.6637  41.5348  51.2417  52.1922

          k =-0.1000 0.8000-0.2000 (   454 PWs)   bands (ev):

   -54.5223 -21.7818 -21.4468 -20.9312  25.7817  26.2069  30.9500  33.4518
    35.0212  44.8343  47.6536  51.0670

          k = 0.5000-0.5000 0.5000 (   456 PWs)   bands (ev):

   -54.7225 -21.2092 -21.2092 -21.2092  28.1967  28.1967  28.1967  33.4014
    33.4014  47.2887  47.2887  47.2887

          k = 0.0000 0.0000 0.7000 (   450 PWs)   bands (ev):

   -54.5496 -21.5535 -21.2456 -21.2456  25.8143  26.0737  32.6859  32.6859
    34.0209  40.8392  53.5730  53.5730

          k = 0.0000-0.1000 0.8000 (   455 PWs)   bands (ev):

   -54.4643 -21.6904 -21.3818 -21.2815  25.1644  25.4319  33.0444  33.4886
    35.1132  44.4046  49.4337  51.5577

          k =-0.1000 0.9000-0.1000 (   460 PWs)   bands (ev):

   -54.4245 -21.5953 -21.5953 -21.3004  24.9301  24.9301  33.2739  34.8665
    34.8665  47.7628  47.7628  49.1645

          k = 0.0000 0.0000 0.9000 (   462 PWs)   bands (ev):

   -54.3869 -21.5679 -21.5231 -21.5231  24.4888  24.5616  34.8028  34.8028
    35.0617  47.0588  49.2624  49.2624

 ------ SPIN DOWN ----------


          k = 0.0000 0.0000 0.1000 (   442 PWs)   bands (ev):

   -54.1050 -18.8816 -18.8317 -18.8317  22.6205  30.6694  30.6694  30.8018
    34.0242  34.3973  62.7980  63.9275

          k = 0.0000-0.1000 0.2000 (   443 PWs)   bands (ev):

   -53.9905 -19.2997 -18.9608 -18.8486  23.8180  30.2097  30.5670  31.7095
    33.4355  34.5703  60.5989  63.1419

          k = 0.0000-0.2000 0.3000 (   446 PWs)   bands (ev):

   -53.8020 -19.9769 -19.1666 -18.8548  25.4744  29.4541  30.4591  33.3361
    33.3706  34.7793  56.8655  60.6480

          k = 0.0000-0.3000 0.4000 (   453 PWs)   bands (ev):

   -53.6092 -20.6335 -19.3677 -18.8615  25.9770  28.7535  31.6643  33.8376
    35.1782  35.2462  52.3397  58.2693

          k = 0.0000-0.4000 0.5000 (   449 PWs)   bands (ev):

   -53.4879 -21.0294 -19.4896 -18.8653  25.6770  28.3443  33.1277  34.1211
    36.2808  36.5580  48.7667  56.8667

          k =-0.1000 0.1000 0.1000 (   441 PWs)   bands (ev):

   -54.0468 -19.1611 -18.8365 -18.8365  23.2411  30.3579  30.3579  31.5509
    34.1243  34.1243  62.2941  62.2942

          k =-0.1000-0.1000 0.3000 (   447 PWs)   bands (ev):

   -53.8413 -19.7604 -19.1144 -18.9427  25.2822  30.0444  30.0472  32.8484
    32.9609  34.9697  58.4889  60.7868

          k =-0.1000-0.2000 0.4000 (   451 PWs)   bands (ev):

   -53.6534 -20.3402 -19.3595 -18.9732  26.5259  29.2348  30.1586  33.0648
    34.6709  35.7479  54.8286  57.9205

          k =-0.1000-0.3000 0.5000 (   453 PWs)   bands (ev):

   -53.4984 -20.8007 -19.5672 -18.9820  26.4264  28.7685  31.0978  33.6670
    35.4678  37.9490  50.4331  56.2171

          k =-0.1000 0.6000-0.4000 (   449 PWs)   bands (ev):

   -53.4385 -20.9741 -19.6464 -18.9841  26.1948  28.6114  31.6210  33.8115
    35.9459  39.4703  48.0999  55.5913

          k =-0.2000 0.2000 0.1000 (   447 PWs)   bands (ev):

   -53.8927 -19.7189 -19.0126 -18.8488  24.8253  29.6392  30.0145  33.0555
    33.7868  34.3421  58.8850  60.7246

          k =-0.2000-0.2000 0.5000 (   452 PWs)   bands (ev):

   -53.5027 -20.6159 -19.6842 -19.0420  27.3573  28.6060  30.1441  33.3272
    35.1353  38.5228  52.4827  54.0007

          k =-0.2000 0.7000-0.4000 (   455 PWs)   bands (ev):

   -53.4084 -20.7290 -19.9623 -19.0623  27.3148  28.6635  30.0761  33.8797
    35.2816  41.7782  48.6993  52.3853

          k =-0.3000 0.3000 0.1000 (   452 PWs)   bands (ev):

   -53.6984 -20.3581 -19.2567 -18.8647  26.1091  28.8730  30.4451  33.8952
    34.5953  35.0827  54.5452  58.5081

          k =-0.3000 0.2000 0.2000 (   447 PWs)   bands (ev):

   -53.7324 -20.2166 -19.1631 -18.9554  26.4289  29.1483  29.2494  33.8199
    34.5860  35.2160  56.4028  57.6101

          k =-0.3000 0.7000-0.3000 (   460 PWs)   bands (ev):

   -53.3739 -20.4141 -20.4141 -19.0822  27.9952  28.9510  28.9510  34.6368
    34.6368  45.8374  45.8374  50.3901

          k =-0.4000 0.4000 0.1000 (   452 PWs)   bands (ev):

   -53.5381 -20.8575 -19.4557 -18.8766  25.9963  28.3177  32.4857  34.2067
    34.8249  37.1294  50.2484  56.6833

          k =-0.4000 0.3000 0.2000 (   453 PWs)   bands (ev):

   -53.5694 -20.6208 -19.4546 -19.0078  27.0187  28.5179  30.0991  34.0432
    34.8796  37.7892  52.4172  55.4022

          k = 0.5000-0.5000 0.1000 (   446 PWs)   bands (ev):

   -53.4760 -21.0447 -19.5310 -18.8812  25.7809  28.1173  33.7187  34.3274
    34.9233  38.2120  48.1336  55.9903

          k = 0.5000-0.6000 0.2000 (   453 PWs)   bands (ev):

   -53.4673 -20.8381 -19.6730 -19.0302  26.6786  28.2148  31.5296  34.3428
    35.0371  40.2085  48.6583  54.2478

          k = 0.5000-0.7000 0.3000 (   456 PWs)   bands (ev):

   -53.4642 -20.6558 -19.8146 -19.1088  27.4580  28.5414  30.0180  34.2979
    35.0087  41.0791  50.0037  52.0930

          k = 0.4000-0.6000 0.3000 (   457 PWs)   bands (ev):

   -53.4238 -20.5704 -20.0618 -19.1377  27.4323  28.6617  30.1163  34.5496
    34.9337  43.6579  47.3274  51.1321

          k = 0.0000 0.0000 0.3000 (   446 PWs)   bands (ev):

   -53.8826 -19.4297 -19.0958 -19.0958  24.8928  30.7556  30.7556  31.7080
    32.1049  35.1573  59.6456  63.8623

          k = 0.0000-0.1000 0.4000 (   447 PWs)   bands (ev):

   -53.7053 -19.9566 -19.3096 -19.1635  26.3728  30.1902  30.3789  31.9528
    33.1419  35.7748  57.3943  60.5954

          k = 0.0000-0.2000 0.5000 (   448 PWs)   bands (ev):

   -53.5244 -20.5392 -19.5188 -19.1578  26.8320  29.7996  29.8562  32.8840
    35.0562  37.0881  52.9218  58.5408

          k = 0.0000-0.3000 0.6000 (   446 PWs)   bands (ev):

   -53.4107 -20.8968 -19.6455 -19.1491  26.4297  29.4461  30.3438  33.1543
    36.4279  39.4231  48.8861  57.5559

          k =-0.1000-0.1000 0.5000 (   452 PWs)   bands (ev):

   -53.5345 -20.3232 -19.5780 -19.2697  27.3615  28.9780  30.7140  32.1965
    34.4169  37.1709  55.4338  56.7627

          k =-0.1000-0.2000 0.6000 (   448 PWs)   bands (ev):

   -53.3940 -20.6567 -19.8256 -19.2747  27.3075  28.7126  30.2809  33.0285
    35.5375  39.9980  51.0709  54.6759

          k =-0.1000 0.7000-0.3000 (   448 PWs)   bands (ev):

   -53.3397 -20.7871 -19.9208 -19.2706  26.9751  29.1522  29.8163  33.2807
    36.0935  42.3559  48.0841  54.0106

          k =-0.2000 0.8000-0.3000 (   450 PWs)   bands (ev):

   -53.3126 -20.5867 -20.2174 -19.2860  27.8383  28.1057  29.6806  34.1272
    35.3323  43.9597  48.7304  50.9542

          k =-0.3000 0.3000 0.3000 (   462 PWs)   bands (ev):

   -53.5966 -20.5375 -19.2243 -19.2243  28.0972  28.5239  28.5239  34.5044
    34.5044  37.8741  54.4252  54.4252

          k = 0.6000-0.6000 0.3000 (   458 PWs)   bands (ev):

   -53.4856 -20.6448 -19.5978 -19.2724  27.7951  28.1919  29.9105  34.6279
    34.8721  40.7972  50.4818  53.0298

          k = 0.5000-0.5000 0.3000 (   456 PWs)   bands (ev):

   -53.4429 -20.6299 -19.7972 -19.2910  27.5466  28.0923  30.6738  34.7158
    34.9840  42.8160  47.8482  52.5236

          k = 0.5000-0.6000 0.4000 (   457 PWs)   bands (ev):

   -53.4338 -20.4106 -19.9191 -19.4609  27.9540  28.6819  29.5905  34.8578
    34.9757  44.2230  48.3527  50.5372

          k = 0.0000 0.0000 0.5000 (   442 PWs)   bands (ev):

   -53.5468 -20.0352 -19.5367 -19.5367  27.3317  29.3053  31.5747  31.5747
    33.2494  36.9997  57.9281  59.6616

          k = 0.0000-0.1000 0.6000 (   441 PWs)   bands (ev):

   -53.3855 -20.3932 -19.7587 -19.6165  27.4772  28.1276  31.6375  32.4787
    34.7941  39.1215  54.0416  57.0655

          k = 0.0000-0.2000 0.7000 (   446 PWs)   bands (ev):

   -53.2844 -20.6785 -19.8932 -19.5962  26.8461  28.0248  31.4387  32.9078
    36.2204  42.3754  49.2733  55.3489

          k =-0.1000-0.1000 0.7000 (   447 PWs)   bands (ev):

   -53.2633 -20.5097 -20.0552 -19.6771  27.0923  27.2999  31.8134  33.6593
    35.5630  42.2632  51.8205  52.5898

          k =-0.1000 0.8000-0.2000 (   454 PWs)   bands (ev):

   -53.2162 -20.5513 -20.2026 -19.6670  26.7403  27.1672  31.6788  34.3064
    35.9294  45.4753  48.2340  51.4904

          k = 0.5000-0.5000 0.5000 (   456 PWs)   bands (ev):

   -53.4224 -19.9586 -19.9586 -19.9586  28.7756  28.7756  28.7756  35.0217
    35.0217  47.7760  47.7760  47.7760

          k = 0.0000 0.0000 0.7000 (   450 PWs)   bands (ev):

   -53.2446 -20.3158 -19.9929 -19.9929  26.8333  26.9643  33.4712  33.4712
    34.8941  41.5573  53.9308  53.9308

          k = 0.0000-0.1000 0.8000 (   455 PWs)   bands (ev):

   -53.1564 -20.4559 -20.1343 -20.0308  26.1356  26.3766  33.8528  34.3081
    36.0189  44.9673  49.8767  51.8811

          k =-0.1000 0.9000-0.1000 (   460 PWs)   bands (ev):

   -53.1153 -20.3563 -20.3563 -20.0499  25.8854  25.8854  34.0836  35.7562
    35.7562  48.2123  48.2123  49.5000

          k = 0.0000 0.0000 0.9000 (   462 PWs)   bands (ev):

   -53.0764 -20.3279 -20.2807 -20.2807  25.4416  25.5059  35.6866  35.6866
    35.9679  47.4249  49.5316  49.5316

     the Fermi energy is    33.5546 ev

!    total energy              =    -254.14467802 Ry
     estimated scf accuracy    <          8.7E-09 Ry
     smearing contrib. (-TS)   =       0.00046723 Ry
     internal energy E=F+TS    =    -254.14514525 Ry

     The total energy is F=E-TS. E is the sum of the following terms:
     one-electron contribution =     -60.33002784 Ry
     hartree contribution      =      48.57762801 Ry
     xc contribution           =     -35.36079807 Ry
     ewald contribution        =    -207.03194735 Ry

     total magnetization       =     1.02 Bohr mag/cell
     absolute magnetization    =     1.04 Bohr mag/cell

     convergence has been achieved in  11 iterations

     Writing output data file ./tempdir/fe.save/

     init_run     :      0.61s CPU      0.63s WALL (       1 calls)
     electrons    :      5.76s CPU      5.81s WALL (       1 calls)

     Called by init_run:
     wfcinit      :      0.13s CPU      0.13s WALL (       1 calls)
     potinit      :      0.05s CPU      0.06s WALL (       1 calls)
     hinit0       :      0.39s CPU      0.39s WALL (       1 calls)

     Called by electrons:
     c_bands      :      3.44s CPU      3.48s WALL (      11 calls)
     sum_band     :      1.29s CPU      1.31s WALL (      11 calls)
     v_of_rho     :      0.62s CPU      0.62s WALL (      12 calls)
     newd         :      0.40s CPU      0.40s WALL (      12 calls)
     mix_rho      :      0.04s CPU      0.04s WALL (      11 calls)

     Called by c_bands:
     init_us_2    :      0.08s CPU      0.08s WALL (    1012 calls)
     cegterg      :      2.99s CPU      3.01s WALL (     484 calls)

     Called by *egterg:
     cdiaghg      :      0.16s CPU      0.16s WALL (    1661 calls)
     h_psi        :      2.70s CPU      2.73s WALL (    1705 calls)
     s_psi        :      0.03s CPU      0.03s WALL (    1705 calls)
     g_psi        :      0.01s CPU      0.01s WALL (    1177 calls)

     Called by h_psi:
     h_psi:calbec :      0.05s CPU      0.05s WALL (    1705 calls)
     vloc_psi     :      2.61s CPU      2.63s WALL (    1705 calls)
     add_vuspsi   :      0.04s CPU      0.04s WALL (    1705 calls)

     General routines
     calbec       :      0.07s CPU      0.07s WALL (    2189 calls)
     fft          :      0.25s CPU      0.25s WALL (     294 calls)
     ffts         :      0.01s CPU      0.01s WALL (      46 calls)
     fftw         :      2.79s CPU      2.81s WALL (   34736 calls)
     interpolate  :      0.03s CPU      0.03s WALL (      24 calls)

     Parallel routines

     PWSCF        :      6.45s CPU      6.53s WALL


   This run was terminated on:   0:17:32  19Apr2021            

=------------------------------------------------------------------------------=
   JOB DONE.
=------------------------------------------------------------------------------=
