
     Program PWSCF v.6.7GPU starts on 19Apr2021 at  0:18:57 

     This program is part of the open-source Quantum ESPRESSO suite
     for quantum simulation of materials; please cite
         "P. Giannozzi et al., J. Phys.:Condens. Matter 21 395502 (2009);
         "P. Giannozzi et al., J. Phys.:Condens. Matter 29 465901 (2017);
         "P. Giannozzi et al., J. Chem. Phys. 152 154105 (2020);
          URL http://www.quantum-espresso.org", 
     in publications or presentations arising from this work. More details at
     http://www.quantum-espresso.org/quote

     Parallel version (MPI & OpenMP), running on       2 processor cores
     Number of MPI processes:                 2
     Threads/MPI process:                     1

     MPI processes distributed on     1 nodes
     K-points division:     npool     =       2
     Reading input from fe.scf.5.5.in

     Current dimensions of program PWSCF are:
     Max number of different atomic species (ntypx) = 10
     Max number of k-points (npk) =  40000
     Max angular momentum in pseudopotentials (lmaxx) =  3

     Subspace diagonalization in iterative solution of the eigenvalue problem:
     a serial algorithm will be used


     G-vector sticks info
     --------------------
     sticks:   dense  smooth     PW     G-vecs:    dense   smooth      PW
     Sum        1453     475    151                34881     6603    1157

     Using Slab Decomposition



     bravais-lattice index     =            3
     lattice parameter (alat)  =       5.5000  a.u.
     unit-cell volume          =      83.1875 (a.u.)^3
     number of atoms/cell      =            1
     number of atomic types    =            1
     number of electrons       =        16.00
     number of Kohn-Sham states=           12
     kinetic-energy cutoff     =      70.0000  Ry
     charge density cutoff     =     850.0000  Ry
     scf convergence threshold =      1.0E-08
     mixing beta               =       0.7000
     number of iterations used =            8  plain     mixing
     Exchange-correlation= PBE
                           (   1   4   3   4   0   0   0)

     celldm(1)=   5.500000  celldm(2)=   0.000000  celldm(3)=   0.000000
     celldm(4)=   0.000000  celldm(5)=   0.000000  celldm(6)=   0.000000

     crystal axes: (cart. coord. in units of alat)
               a(1) = (   0.500000   0.500000   0.500000 )  
               a(2) = (  -0.500000   0.500000   0.500000 )  
               a(3) = (  -0.500000  -0.500000   0.500000 )  

     reciprocal axes: (cart. coord. in units 2 pi/alat)
               b(1) = (  1.000000  0.000000  1.000000 )  
               b(2) = ( -1.000000  1.000000  0.000000 )  
               b(3) = (  0.000000 -1.000000  1.000000 )  


     PseudoPot. # 1 for Fe read from file:
     /home/pietro/repositories/materials-for-max-qe2021-online-school/pseudo/Fe.pbe-spn-rrkjus_psl.0.2.1.UPF
     MD5 check sum: f9af58635850a145d9bd408d58feeb93
     Pseudo is Ultrasoft + core correction, Zval = 16.0
     Generated using "atomic" code by A. Dal Corso  v.5.0.2 svn rev. 9415
     Using radial grid of 1191 points,  6 beta functions with: 
                l(1) =   0
                l(2) =   0
                l(3) =   1
                l(4) =   1
                l(5) =   2
                l(6) =   2
     Q(r) pseudized with 0 coefficients 


     atomic species   valence    mass     pseudopotential
        Fe            16.00    55.84500     Fe( 1.00)

     Starting magnetic structure 
     atomic species   magnetization
        Fe           0.700

     48 Sym. Ops., with inversion, found



   Cartesian axes

     site n.     atom                  positions (alat units)
         1           Fe  tau(   1) = (   0.0000000   0.0000000   0.0000000  )

     number of k points=    44  Marzari-Vanderbilt smearing, width (Ry)=  0.0200
                       cart. coord. in units 2pi/alat
        k(    1) = (   0.0000000   0.0000000   0.1000000), wk =   0.0060000
        k(    2) = (   0.0000000  -0.1000000   0.2000000), wk =   0.0240000
        k(    3) = (   0.0000000  -0.2000000   0.3000000), wk =   0.0240000
        k(    4) = (   0.0000000  -0.3000000   0.4000000), wk =   0.0240000
        k(    5) = (   0.0000000  -0.4000000   0.5000000), wk =   0.0240000
        k(    6) = (  -0.1000000   0.1000000   0.1000000), wk =   0.0080000
        k(    7) = (  -0.1000000  -0.1000000   0.3000000), wk =   0.0240000
        k(    8) = (  -0.1000000  -0.2000000   0.4000000), wk =   0.0480000
        k(    9) = (  -0.1000000  -0.3000000   0.5000000), wk =   0.0480000
        k(   10) = (  -0.1000000   0.6000000  -0.4000000), wk =   0.0240000
        k(   11) = (  -0.2000000   0.2000000   0.1000000), wk =   0.0240000
        k(   12) = (  -0.2000000  -0.2000000   0.5000000), wk =   0.0240000
        k(   13) = (  -0.2000000   0.7000000  -0.4000000), wk =   0.0480000
        k(   14) = (  -0.3000000   0.3000000   0.1000000), wk =   0.0240000
        k(   15) = (  -0.3000000   0.2000000   0.2000000), wk =   0.0240000
        k(   16) = (  -0.3000000   0.7000000  -0.3000000), wk =   0.0080000
        k(   17) = (  -0.4000000   0.4000000   0.1000000), wk =   0.0240000
        k(   18) = (  -0.4000000   0.3000000   0.2000000), wk =   0.0480000
        k(   19) = (   0.5000000  -0.5000000   0.1000000), wk =   0.0120000
        k(   20) = (   0.5000000  -0.6000000   0.2000000), wk =   0.0480000
        k(   21) = (   0.5000000  -0.7000000   0.3000000), wk =   0.0240000
        k(   22) = (   0.4000000  -0.6000000   0.3000000), wk =   0.0240000
        k(   23) = (   0.0000000   0.0000000   0.3000000), wk =   0.0060000
        k(   24) = (   0.0000000  -0.1000000   0.4000000), wk =   0.0240000
        k(   25) = (   0.0000000  -0.2000000   0.5000000), wk =   0.0240000
        k(   26) = (   0.0000000  -0.3000000   0.6000000), wk =   0.0240000
        k(   27) = (  -0.1000000  -0.1000000   0.5000000), wk =   0.0240000
        k(   28) = (  -0.1000000  -0.2000000   0.6000000), wk =   0.0480000
        k(   29) = (  -0.1000000   0.7000000  -0.3000000), wk =   0.0240000
        k(   30) = (  -0.2000000   0.8000000  -0.3000000), wk =   0.0240000
        k(   31) = (  -0.3000000   0.3000000   0.3000000), wk =   0.0080000
        k(   32) = (   0.6000000  -0.6000000   0.3000000), wk =   0.0240000
        k(   33) = (   0.5000000  -0.5000000   0.3000000), wk =   0.0120000
        k(   34) = (   0.5000000  -0.6000000   0.4000000), wk =   0.0240000
        k(   35) = (   0.0000000   0.0000000   0.5000000), wk =   0.0060000
        k(   36) = (   0.0000000  -0.1000000   0.6000000), wk =   0.0240000
        k(   37) = (   0.0000000  -0.2000000   0.7000000), wk =   0.0240000
        k(   38) = (  -0.1000000  -0.1000000   0.7000000), wk =   0.0240000
        k(   39) = (  -0.1000000   0.8000000  -0.2000000), wk =   0.0240000
        k(   40) = (   0.5000000  -0.5000000   0.5000000), wk =   0.0020000
        k(   41) = (   0.0000000   0.0000000   0.7000000), wk =   0.0060000
        k(   42) = (   0.0000000  -0.1000000   0.8000000), wk =   0.0240000
        k(   43) = (  -0.1000000   0.9000000  -0.1000000), wk =   0.0080000
        k(   44) = (   0.0000000   0.0000000   0.9000000), wk =   0.0060000

     Dense  grid:    34881 G-vectors     FFT dimensions: (  45,  45,  45)

     Smooth grid:     6603 G-vectors     FFT dimensions: (  25,  25,  25)

     Estimated max dynamical RAM per process >      94.57 MB

     Estimated total dynamical RAM >     172.11 MB

     Check: negative core charge=   -0.000010
     Generating pointlists ...
     new r_m :   0.3572 (alat units)  1.9648 (a.u.) for type    1

     Initial potential from superposition of free atoms

     starting charge   15.99956, renormalised to   16.00000
     Starting wfcs are   13 randomized atomic wfcs

     total cpu time spent up to now is        0.9 secs

     Self-consistent Calculation

     iteration #  1     ecut=    70.00 Ry     beta= 0.70
     Davidson diagonalization with overlap
     ethr =  1.00E-02,  avg # of iterations =  3.0

     negative rho (up, down):  0.000E+00 6.664E-05

     total cpu time spent up to now is        1.9 secs

     total energy              =    -254.09268775 Ry
     estimated scf accuracy    <       1.48264304 Ry

     total magnetization       =     3.87 Bohr mag/cell
     absolute magnetization    =     3.92 Bohr mag/cell

     iteration #  2     ecut=    70.00 Ry     beta= 0.70
     Davidson diagonalization with overlap
     ethr =  9.27E-03,  avg # of iterations =  1.3

     negative rho (up, down):  0.000E+00 7.372E-05

     total cpu time spent up to now is        2.8 secs

     total energy              =    -254.26130162 Ry
     estimated scf accuracy    <       0.36581803 Ry

     total magnetization       =     3.04 Bohr mag/cell
     absolute magnetization    =     3.23 Bohr mag/cell

     iteration #  3     ecut=    70.00 Ry     beta= 0.70
     Davidson diagonalization with overlap
     ethr =  2.29E-03,  avg # of iterations =  2.0

     negative rho (up, down):  0.000E+00 7.966E-05

     total cpu time spent up to now is        3.7 secs

     total energy              =    -254.28723258 Ry
     estimated scf accuracy    <       0.47966107 Ry

     total magnetization       =     2.66 Bohr mag/cell
     absolute magnetization    =     2.82 Bohr mag/cell

     iteration #  4     ecut=    70.00 Ry     beta= 0.70
     Davidson diagonalization with overlap
     ethr =  2.29E-03,  avg # of iterations =  2.0

     negative rho (up, down):  0.000E+00 6.137E-05

     total cpu time spent up to now is        4.6 secs

     total energy              =    -254.36508099 Ry
     estimated scf accuracy    <       0.00097271 Ry

     total magnetization       =     2.47 Bohr mag/cell
     absolute magnetization    =     2.66 Bohr mag/cell

     iteration #  5     ecut=    70.00 Ry     beta= 0.70
     Davidson diagonalization with overlap
     ethr =  6.08E-06,  avg # of iterations =  6.6

     negative rho (up, down):  0.000E+00 5.958E-05

     total cpu time spent up to now is        6.1 secs

     total energy              =    -254.36696749 Ry
     estimated scf accuracy    <       0.00045597 Ry

     total magnetization       =     2.43 Bohr mag/cell
     absolute magnetization    =     2.60 Bohr mag/cell

     iteration #  6     ecut=    70.00 Ry     beta= 0.70
     Davidson diagonalization with overlap
     ethr =  2.85E-06,  avg # of iterations =  1.4

     negative rho (up, down):  0.000E+00 5.130E-05

     total cpu time spent up to now is        6.9 secs

     total energy              =    -254.36694062 Ry
     estimated scf accuracy    <       0.00017265 Ry

     total magnetization       =     2.42 Bohr mag/cell
     absolute magnetization    =     2.58 Bohr mag/cell

     iteration #  7     ecut=    70.00 Ry     beta= 0.70
     Davidson diagonalization with overlap
     ethr =  1.08E-06,  avg # of iterations =  2.0

     negative rho (up, down):  0.000E+00 5.277E-05

     total cpu time spent up to now is        7.8 secs

     total energy              =    -254.36714807 Ry
     estimated scf accuracy    <       0.00000990 Ry

     total magnetization       =     2.36 Bohr mag/cell
     absolute magnetization    =     2.51 Bohr mag/cell

     iteration #  8     ecut=    70.00 Ry     beta= 0.70
     Davidson diagonalization with overlap
     ethr =  6.19E-08,  avg # of iterations =  3.2

     negative rho (up, down):  0.000E+00 5.113E-05

     total cpu time spent up to now is        9.4 secs

     total energy              =    -254.36715273 Ry
     estimated scf accuracy    <       0.00001821 Ry

     total magnetization       =     2.35 Bohr mag/cell
     absolute magnetization    =     2.50 Bohr mag/cell

     iteration #  9     ecut=    70.00 Ry     beta= 0.70
     Davidson diagonalization with overlap
     ethr =  6.19E-08,  avg # of iterations =  1.5

     negative rho (up, down):  0.000E+00 5.104E-05

     total cpu time spent up to now is       10.3 secs

     total energy              =    -254.36716109 Ry
     estimated scf accuracy    <       0.00000002 Ry

     total magnetization       =     2.34 Bohr mag/cell
     absolute magnetization    =     2.49 Bohr mag/cell

     iteration # 10     ecut=    70.00 Ry     beta= 0.70
     Davidson diagonalization with overlap
     ethr =  9.46E-11,  avg # of iterations =  6.6

     negative rho (up, down):  0.000E+00 5.098E-05

     total cpu time spent up to now is       11.8 secs

     total energy              =    -254.36716136 Ry
     estimated scf accuracy    <       0.00000001 Ry

     total magnetization       =     2.34 Bohr mag/cell
     absolute magnetization    =     2.49 Bohr mag/cell

     iteration # 11     ecut=    70.00 Ry     beta= 0.70
     Davidson diagonalization with overlap
     ethr =  7.81E-11,  avg # of iterations =  1.2

     negative rho (up, down):  0.000E+00 5.098E-05

     Magnetic moment per site  (integrated on atomic sphere of radius R)
     atom   1 (R=0.357)  charge= 14.4588  magn=  2.4083

     total cpu time spent up to now is       12.6 secs

     End of self-consistent calculation

 ------ SPIN UP ------------


          k = 0.0000 0.0000 0.1000 (   831 PWs)   bands (ev):

   -71.6034 -37.4731 -37.4679 -37.4679   8.6471  14.3115  14.3115  14.3629
    15.3176  15.4298  39.3789  40.3440

          k = 0.0000-0.1000 0.2000 (   832 PWs)   bands (ev):

   -71.5934 -37.5280 -37.4872 -37.4691   9.3960  14.1478  14.2799  14.7292
    15.1442  15.4838  36.0063  38.6643

          k = 0.0000-0.2000 0.3000 (   827 PWs)   bands (ev):

   -71.5774 -37.6177 -37.5185 -37.4687  10.6881  13.8666  14.1777  15.1537
    15.3933  15.5489  31.4396  36.5929

          k = 0.0000-0.3000 0.4000 (   817 PWs)   bands (ev):

   -71.5612 -37.7068 -37.5492 -37.4679  11.7630  13.5953  14.5754  15.3765
    15.7734  16.1296  27.0746  34.9857

          k = 0.0000-0.4000 0.5000 (   823 PWs)   bands (ev):

   -71.5513 -37.7620 -37.5685 -37.4680  11.9922  13.4323  15.1477  15.4227
    16.6312  17.0190  23.7188  34.1181

          k =-0.1000 0.1000 0.1000 (   836 PWs)   bands (ev):

   -71.5983 -37.5114 -37.4682 -37.4682   9.0279  14.1988  14.1988  14.6584
    15.3498  15.3498  37.9544  37.9544

          k =-0.1000-0.1000 0.3000 (   825 PWs)   bands (ev):

   -71.5806 -37.5890 -37.5089 -37.4821  10.4156  14.0797  14.0846  14.9829
    15.2294  15.6125  33.6532  34.7212

          k =-0.1000-0.2000 0.4000 (   827 PWs)   bands (ev):

   -71.5647 -37.6681 -37.5444 -37.4860  11.6779  13.7582  14.0365  15.1073
    15.6851  16.1904  29.5038  32.5581

          k =-0.1000-0.3000 0.5000 (   825 PWs)   bands (ev):

   -71.5518 -37.7317 -37.5755 -37.4861  12.2478  13.5880  14.3420  15.3155
    16.0408  17.5383  25.4423  31.3701

          k =-0.1000 0.6000-0.4000 (   824 PWs)   bands (ev):

   -71.5469 -37.7558 -37.5877 -37.4859  12.2753  13.5315  14.5615  15.3378
    16.3249  18.8287  23.2001  30.9412

          k =-0.2000 0.2000 0.1000 (   826 PWs)   bands (ev):

   -71.5852 -37.5848 -37.4937 -37.4683  10.0902  13.9328  14.0629  15.2483
    15.2728  15.4157  33.7530  36.0603

          k =-0.2000-0.2000 0.5000 (   823 PWs)   bands (ev):

   -71.5520 -37.7076 -37.5867 -37.4969  12.5623  13.4418  14.0382  15.2231
    15.8262  17.7491  27.7824  28.4225

          k =-0.2000 0.7000-0.4000 (   820 PWs)   bands (ev):

   -71.5442 -37.7238 -37.6242 -37.5002  12.7987  13.4802  13.9494  15.4192
    15.9748  19.9814  24.3144  27.3527

          k =-0.3000 0.3000 0.1000 (   821 PWs)   bands (ev):

   -71.5689 -37.6701 -37.5303 -37.4687  11.4242  13.6384  14.1178  15.3241
    15.4841  16.0986  29.2374  34.4150

          k =-0.3000 0.2000 0.2000 (   833 PWs)   bands (ev):

   -71.5718 -37.6530 -37.5135 -37.4828  11.3033  13.7248  13.7549  15.2830
    15.4948  16.1488  31.5471  32.3248

          k =-0.3000 0.7000-0.3000 (   823 PWs)   bands (ev):

   -71.5413 -37.6827 -37.6827 -37.5044  13.2327  13.4839  13.4839  15.7292
    15.7292  22.8154  22.8154  25.0815

          k =-0.4000 0.4000 0.1000 (   820 PWs)   bands (ev):

   -71.5556 -37.7377 -37.5609 -37.4690  12.0280  13.4176  15.0739  15.4625
    15.5396  17.1441  25.2283  33.3004

          k =-0.4000 0.3000 0.2000 (   820 PWs)   bands (ev):

   -71.5584 -37.7070 -37.5537 -37.4884  12.3338  13.4721  13.9465  15.3739
    15.5849  17.4154  27.5329  30.5747

          k = 0.5000-0.5000 0.1000 (   824 PWs)   bands (ev):

   -71.5506 -37.7637 -37.5727 -37.4692  12.0698  13.3363  15.4651  15.5619
    15.7968  18.0837  23.1321  32.9057

          k = 0.5000-0.6000 0.2000 (   820 PWs)   bands (ev):

   -71.5501 -37.7354 -37.5857 -37.4903  12.4731  13.3531  14.6200  15.4744
    15.6796  19.1270  24.0063  29.7860

          k = 0.5000-0.7000 0.3000 (   831 PWs)   bands (ev):

   -71.5499 -37.7121 -37.5996 -37.5034  12.8816  13.3964  13.9301  15.4664
    15.6650  19.4412  26.0340  26.8497

          k = 0.4000-0.6000 0.3000 (   824 PWs)   bands (ev):

   -71.5466 -37.6992 -37.6327 -37.5072  12.9353  13.4368  13.9908  15.5487
    15.6757  21.4972  23.5196  26.1839

          k = 0.0000 0.0000 0.3000 (   835 PWs)   bands (ev):

   -71.5840 -37.5400 -37.5075 -37.5075  10.0985  14.3693  14.3693  14.7137
    14.7436  15.6699  35.6814  36.9827

          k = 0.0000-0.1000 0.4000 (   832 PWs)   bands (ev):

   -71.5686 -37.6139 -37.5393 -37.5142  11.2740  14.0766  14.2356  14.7647
    15.3160  15.9195  31.9870  34.8742

          k = 0.0000-0.2000 0.5000 (   818 PWs)   bands (ev):

   -71.5532 -37.6960 -37.5707 -37.5112  12.2130  13.8334  14.0142  15.1041
    16.0634  16.7572  27.5838  33.1691

          k = 0.0000-0.3000 0.6000 (   818 PWs)   bands (ev):

   -71.5437 -37.7473 -37.5903 -37.5091  12.3707  13.8754  14.0100  15.1625
    16.5841  18.6198  23.9957  32.1679

          k =-0.1000-0.1000 0.5000 (   819 PWs)   bands (ev):

   -71.5538 -37.6664 -37.5761 -37.5300  12.2425  13.6035  14.3507  14.8990
    15.7656  16.7418  30.0709  30.6195

          k =-0.1000-0.2000 0.6000 (   819 PWs)   bands (ev):

   -71.5417 -37.7159 -37.6113 -37.5309  12.6956  13.3879  14.1743  15.1983
    16.1972  18.6499  26.1169  29.1661

          k =-0.1000 0.7000-0.3000 (   817 PWs)   bands (ev):

   -71.5371 -37.7352 -37.6250 -37.5303  12.6697  13.5321  14.0105  15.2773
    16.4336  20.5612  23.4736  28.7101

          k =-0.2000 0.8000-0.3000 (   817 PWs)   bands (ev):

   -71.5346 -37.7100 -37.6623 -37.5350  13.0670  13.1003  13.9354  15.6492
    16.1148  21.3624  24.7353  25.8245

          k =-0.3000 0.3000 0.3000 (   820 PWs)   bands (ev):

   -71.5609 -37.6967 -37.5178 -37.5178  12.5005  13.4678  13.4678  15.4710
    15.4710  17.4308  29.9533  29.9533

          k = 0.6000-0.6000 0.3000 (   819 PWs)   bands (ev):

   -71.5520 -37.7096 -37.5691 -37.5219  12.9659  13.3253  13.8567  15.5203
    15.5570  19.2533  26.1372  28.9562

          k = 0.5000-0.5000 0.3000 (   822 PWs)   bands (ev):

   -71.5487 -37.7054 -37.5979 -37.5238  12.8947  13.2816  14.2750  15.5523
    15.5792  21.0201  23.5528  28.6155

          k = 0.5000-0.6000 0.4000 (   822 PWs)   bands (ev):

   -71.5481 -37.6762 -37.6096 -37.5473  13.1711  13.4470  13.7776  15.5715
    15.5904  21.7511  24.9329  25.8983

          k = 0.0000 0.0000 0.5000 (   827 PWs)   bands (ev):

   -71.5545 -37.6216 -37.5725 -37.5725  12.1050  13.7255  14.7146  14.7146
    15.3711  16.5442  32.5039  32.5039

          k = 0.0000-0.1000 0.6000 (   824 PWs)   bands (ev):

   -71.5403 -37.6792 -37.6055 -37.5803  12.6164  13.2259  14.7498  15.0490
    15.9713  17.9803  28.5171  30.6490

          k = 0.0000-0.2000 0.7000 (   816 PWs)   bands (ev):

   -71.5315 -37.7236 -37.6254 -37.5759  12.6371  13.0834  14.6760  15.1928
    16.5085  20.4147  24.6792  29.5758

          k =-0.1000-0.1000 0.7000 (   819 PWs)   bands (ev):

   -71.5293 -37.7013 -37.6459 -37.5912  12.7172  12.8217  14.8159  15.5321
    16.2544  20.2105  27.0017  27.4232

          k =-0.1000 0.8000-0.2000 (   815 PWs)   bands (ev):

   -71.5251 -37.7101 -37.6656 -37.5905  12.6335  12.7650  14.7663  15.7751
    16.3956  22.6865  24.1193  26.7543

          k = 0.5000-0.5000 0.5000 (   820 PWs)   bands (ev):

   -71.5475 -37.6134 -37.6134 -37.6134  13.4865  13.4865  13.4865  15.5899
    15.5899  24.5569  24.5569  24.5569

          k = 0.0000 0.0000 0.7000 (   816 PWs)   bands (ev):

   -71.5272 -37.6712 -37.6394 -37.6394  12.5596  12.7439  15.4792  15.4792
    16.0121  19.7678  28.6437  28.6437

          k = 0.0000-0.1000 0.8000 (   820 PWs)   bands (ev):

   -71.5192 -37.7000 -37.6608 -37.6423  12.4127  12.4595  15.6289  15.8003
    16.4344  22.3491  25.7618  27.4579

          k =-0.1000 0.9000-0.1000 (   832 PWs)   bands (ev):

   -71.5154 -37.6905 -37.6905 -37.6480  12.3017  12.3017  15.7205  16.3412
    16.3412  24.8846  24.8846  25.6063

          k = 0.0000 0.0000 0.9000 (   836 PWs)   bands (ev):

   -71.5117 -37.6868 -37.6829 -37.6829  12.1470  12.1476  16.3182  16.3182
    16.4143  24.5026  26.1747  26.1747

 ------ SPIN DOWN ----------


          k = 0.0000 0.0000 0.1000 (   831 PWs)   bands (ev):

   -68.6391 -34.5457 -34.5396 -34.5396   8.7891  16.4048  16.4048  16.4708
    18.1854  18.3359  39.2171  40.1513

          k = 0.0000-0.1000 0.2000 (   832 PWs)   bands (ev):

   -68.6280 -34.6080 -34.5612 -34.5411   9.5484  16.2000  16.3403  16.8769
    17.9309  18.4000  36.2948  38.7168

          k = 0.0000-0.2000 0.3000 (   827 PWs)   bands (ev):

   -68.6102 -34.7100 -34.5962 -34.5408  10.9249  15.8532  16.1124  17.6238
    17.8285  18.4657  32.0888  36.6857

          k = 0.0000-0.3000 0.4000 (   817 PWs)   bands (ev):

   -68.5922 -34.8110 -34.6306 -34.5400  12.4678  15.5223  16.0415  17.9631
    18.4676  18.5615  28.0196  35.0526

          k = 0.0000-0.4000 0.5000 (   823 PWs)   bands (ev):

   -68.5811 -34.8734 -34.6521 -34.5401  13.2890  15.3252  16.6087  18.0766
    18.7910  19.0550  25.0618  34.1533

          k =-0.1000 0.1000 0.1000 (   836 PWs)   bands (ev):

   -68.6335 -34.5889 -34.5400 -34.5400   9.1735  16.2675  16.2675  16.7935
    18.2226  18.2226  38.0478  38.0478

          k =-0.1000-0.1000 0.3000 (   825 PWs)   bands (ev):

   -68.6138 -34.6774 -34.5855 -34.5557  10.6106  16.0802  16.1211  17.4165
    17.6475  18.5306  34.1241  35.2220

          k =-0.1000-0.2000 0.4000 (   827 PWs)   bands (ev):

   -68.5961 -34.7670 -34.6255 -34.5601  12.1084  15.7196  15.8868  17.6688
    18.2316  18.7031  30.2664  33.0989

          k =-0.1000-0.3000 0.5000 (   825 PWs)   bands (ev):

   -68.5818 -34.8389 -34.6604 -34.5603  13.3609  15.4774  15.8901  17.8847
    18.6213  19.4911  26.5101  31.9129

          k =-0.1000 0.6000-0.4000 (   824 PWs)   bands (ev):

   -68.5763 -34.8661 -34.6740 -34.5602  13.7072  15.4122  16.1166  17.9548
    18.7919  20.2399  24.6016  31.4745

          k =-0.2000 0.2000 0.1000 (   826 PWs)   bands (ev):

   -68.6188 -34.6724 -34.5685 -34.5403  10.2653  15.9382  16.0693  17.4438
    18.0534  18.3073  34.2242  36.2988

          k =-0.2000-0.2000 0.5000 (   823 PWs)   bands (ev):

   -68.5820 -34.8115 -34.6734 -34.5723  13.4549  15.3272  15.7843  17.7570
    18.5047  19.7295  28.6472  29.1447

          k =-0.2000 0.7000-0.4000 (   820 PWs)   bands (ev):

   -68.5733 -34.8296 -34.7160 -34.5760  14.2662  15.2602  15.6082  17.9754
    18.5409  21.4243  25.4342  28.1157

          k =-0.3000 0.3000 0.1000 (   821 PWs)   bands (ev):

   -68.6007 -34.7693 -34.6095 -34.5409  11.8127  15.5720  15.8506  18.0497
    18.3174  18.4066  30.0105  34.6630

          k =-0.3000 0.2000 0.2000 (   833 PWs)   bands (ev):

   -68.6039 -34.7496 -34.5909 -34.5566  11.5737  15.6594  15.6627  18.0507
    18.3084  18.4167  32.1241  32.8778

          k =-0.3000 0.7000-0.3000 (   823 PWs)   bands (ev):

   -68.5701 -34.7826 -34.7826 -34.5806  14.9296  15.1567  15.1567  18.2806
    18.2806  23.9497  23.9497  26.0392

          k =-0.4000 0.4000 0.1000 (   820 PWs)   bands (ev):

   -68.5860 -34.8460 -34.6438 -34.5413  13.0912  15.2987  16.1471  18.1458
    18.4938  19.1939  26.3339  33.5104

          k =-0.4000 0.3000 0.2000 (   820 PWs)   bands (ev):

   -68.5890 -34.8110 -34.6363 -34.5630  13.0651  15.3198  15.5269  18.1163
    18.4902  19.4416  28.3782  31.1613

          k = 0.5000-0.5000 0.1000 (   824 PWs)   bands (ev):

   -68.5804 -34.8753 -34.6570 -34.5416  13.4374  15.1986  16.6944  18.1874
    18.5301  19.6801  24.5791  33.0951

          k = 0.5000-0.6000 0.2000 (   820 PWs)   bands (ev):

   -68.5798 -34.8431 -34.6723 -34.5654  13.8266  15.1621  15.8858  18.2187
    18.5434  20.6465  25.2118  30.3634

          k = 0.5000-0.7000 0.3000 (   831 PWs)   bands (ev):

   -68.5795 -34.8165 -34.6885 -34.5798  14.1737  15.0983  15.4043  18.2194
    18.5198  21.0502  26.9439  27.6386

          k = 0.4000-0.6000 0.3000 (   824 PWs)   bands (ev):

   -68.5759 -34.8019 -34.7261 -34.5842  14.4898  15.1043  15.4312  18.3183
    18.4853  22.6777  24.6883  27.0047

          k = 0.0000 0.0000 0.3000 (   835 PWs)   bands (ev):

   -68.6175 -34.6223 -34.5838 -34.5838  10.2727  16.4173  16.4173  16.9008
    17.3729  18.6008  35.8946  37.4963

          k = 0.0000-0.1000 0.4000 (   832 PWs)   bands (ev):

   -68.6005 -34.7058 -34.6195 -34.5918  11.5700  16.2138  16.2477  17.1386
    17.5359  18.7553  32.6296  35.5072

          k = 0.0000-0.2000 0.5000 (   818 PWs)   bands (ev):

   -68.5834 -34.7985 -34.6547 -34.5887  13.0093  15.7493  15.9791  17.4702
    18.3894  19.0963  28.4798  33.8106

          k = 0.0000-0.3000 0.6000 (   818 PWs)   bands (ev):

   -68.5728 -34.8563 -34.6767 -34.5864  13.7986  15.7065  15.8114  17.6275
    19.0004  20.1067  25.2342  32.7714

          k =-0.1000-0.1000 0.5000 (   819 PWs)   bands (ev):

   -68.5840 -34.7650 -34.6611 -34.6096  12.8730  15.7263  16.3145  17.1670
    18.1200  19.1271  30.8439  31.2792

          k =-0.1000-0.2000 0.6000 (   819 PWs)   bands (ev):

   -68.5707 -34.8206 -34.7007 -34.6106  13.9752  15.2811  16.1224  17.5238
    18.6048  20.3405  27.0760  29.8683

          k =-0.1000 0.7000-0.3000 (   817 PWs)   bands (ev):

   -68.5656 -34.8422 -34.7162 -34.6100  14.3200  15.2643  15.9442  17.6347
    18.8454  21.7588  24.7230  29.3966

          k =-0.2000 0.8000-0.3000 (   817 PWs)   bands (ev):

   -68.5628 -34.8133 -34.7588 -34.6150  14.7421  14.9400  15.8048  17.9878
    18.5091  22.6102  25.7518  26.6652

          k =-0.3000 0.3000 0.3000 (   820 PWs)   bands (ev):

   -68.5918 -34.7992 -34.5963 -34.5963  12.9617  15.2927  15.2927  18.3439
    18.3439  19.4746  30.5718  30.5718

          k = 0.6000-0.6000 0.3000 (   819 PWs)   bands (ev):

   -68.5819 -34.8139 -34.6542 -34.6011  14.1362  15.0732  15.2454  18.3774
    18.5045  20.9070  27.0235  29.5836

          k = 0.5000-0.5000 0.3000 (   822 PWs)   bands (ev):

   -68.5782 -34.8092 -34.6866 -34.6033  14.3504  15.0017  15.5683  18.4056
    18.5540  22.2054  24.7643  29.2427

          k = 0.5000-0.6000 0.4000 (   822 PWs)   bands (ev):

   -68.5775 -34.7759 -34.7003 -34.6298  14.7310  15.0169  15.1649  18.4867
    18.5431  22.9677  25.8565  26.7371

          k = 0.0000 0.0000 0.5000 (   827 PWs)   bands (ev):

   -68.5848 -34.7151 -34.6568 -34.6568  12.6544  16.0733  16.7467  16.7467
    17.6134  19.0655  33.1644  33.1644

          k = 0.0000-0.1000 0.6000 (   824 PWs)   bands (ev):

   -68.5691 -34.7791 -34.6939 -34.6662  13.7272  15.3569  16.7887  17.1863
    18.2851  19.8266  29.3020  31.2783

          k = 0.0000-0.2000 0.7000 (   816 PWs)   bands (ev):

   -68.5593 -34.8287 -34.7163 -34.6614  14.3331  14.9319  16.7052  17.3811
    18.9128  21.6352  25.6938  30.1470

          k =-0.1000-0.1000 0.7000 (   819 PWs)   bands (ev):

   -68.5570 -34.8034 -34.7397 -34.6783  14.3004  14.8434  16.8438  17.7174
    18.6139  21.4882  27.8153  28.1011

          k =-0.1000 0.8000-0.2000 (   815 PWs)   bands (ev):

   -68.5523 -34.8129 -34.7620 -34.6774  14.5278  14.6078  16.7511  18.0148
    18.7720  23.6372  25.0839  27.4430

          k = 0.5000-0.5000 0.5000 (   820 PWs)   bands (ev):

   -68.5768 -34.7048 -34.7048 -34.7048  15.0045  15.0045  15.0045  18.5688
    18.5688  25.4821  25.4821  25.4821

          k = 0.0000 0.0000 0.7000 (   816 PWs)   bands (ev):

   -68.5547 -34.7699 -34.7321 -34.7321  14.1151  14.8240  17.6047  17.6047
    18.3463  21.0330  29.2075  29.2075

          k = 0.0000-0.1000 0.8000 (   820 PWs)   bands (ev):

   -68.5459 -34.8011 -34.7561 -34.7358  14.2463  14.4125  17.8107  17.9868
    18.8277  23.2141  26.4304  27.9298

          k =-0.1000 0.9000-0.1000 (   832 PWs)   bands (ev):

   -68.5416 -34.7899 -34.7899 -34.7418  14.2141  14.2141  17.8990  18.6945
    18.6945  25.5052  25.5052  26.1442

          k = 0.0000 0.0000 0.9000 (   836 PWs)   bands (ev):

   -68.5375 -34.7858 -34.7809 -34.7809  14.0433  14.0844  18.6632  18.6632
    18.8089  24.9986  26.5065  26.5065

     the Fermi energy is    16.4581 ev

!    total energy              =    -254.36716137 Ry
     estimated scf accuracy    <          6.7E-10 Ry
     smearing contrib. (-TS)   =       0.00164055 Ry
     internal energy E=F+TS    =    -254.36880192 Ry

     The total energy is F=E-TS. E is the sum of the following terms:
     one-electron contribution =    -118.32477837 Ry
     hartree contribution      =      68.13834539 Ry
     xc contribution           =     -34.79259384 Ry
     ewald contribution        =    -169.38977510 Ry

     total magnetization       =     2.34 Bohr mag/cell
     absolute magnetization    =     2.49 Bohr mag/cell

     convergence has been achieved in  11 iterations

     Writing output data file ./tempdir/fe.save/

     init_run     :      0.82s CPU      0.84s WALL (       1 calls)
     electrons    :     11.29s CPU     11.68s WALL (       1 calls)

     Called by init_run:
     wfcinit      :      0.24s CPU      0.24s WALL (       1 calls)
     potinit      :      0.10s CPU      0.11s WALL (       1 calls)
     hinit0       :      0.40s CPU      0.40s WALL (       1 calls)

     Called by electrons:
     c_bands      :      6.90s CPU      6.96s WALL (      11 calls)
     sum_band     :      2.60s CPU      2.74s WALL (      11 calls)
     v_of_rho     :      1.03s CPU      1.07s WALL (      12 calls)
     newd         :      0.76s CPU      0.92s WALL (      12 calls)
     mix_rho      :      0.08s CPU      0.08s WALL (      11 calls)

     Called by c_bands:
     init_us_2    :      0.16s CPU      0.16s WALL (    1012 calls)
     cegterg      :      6.04s CPU      6.10s WALL (     484 calls)

     Called by *egterg:
     cdiaghg      :      0.21s CPU      0.21s WALL (    1795 calls)
     h_psi        :      5.51s CPU      5.56s WALL (    1839 calls)
     s_psi        :      0.07s CPU      0.07s WALL (    1839 calls)
     g_psi        :      0.03s CPU      0.03s WALL (    1311 calls)

     Called by h_psi:
     h_psi:calbec :      0.09s CPU      0.10s WALL (    1839 calls)
     vloc_psi     :      5.32s CPU      5.37s WALL (    1839 calls)
     add_vuspsi   :      0.08s CPU      0.08s WALL (    1839 calls)

     General routines
     calbec       :      0.12s CPU      0.13s WALL (    2323 calls)
     fft          :      0.42s CPU      0.43s WALL (     294 calls)
     ffts         :      0.01s CPU      0.01s WALL (      46 calls)
     fftw         :      5.88s CPU      5.93s WALL (   37160 calls)
     interpolate  :      0.05s CPU      0.05s WALL (      24 calls)

     Parallel routines

     PWSCF        :     12.18s CPU     12.61s WALL


   This run was terminated on:   0:19:10  19Apr2021            

=------------------------------------------------------------------------------=
   JOB DONE.
=------------------------------------------------------------------------------=
