
     Program PWSCF v.6.7GPU starts on 19Apr2021 at  0:17:39 

     This program is part of the open-source Quantum ESPRESSO suite
     for quantum simulation of materials; please cite
         "P. Giannozzi et al., J. Phys.:Condens. Matter 21 395502 (2009);
         "P. Giannozzi et al., J. Phys.:Condens. Matter 29 465901 (2017);
         "P. Giannozzi et al., J. Chem. Phys. 152 154105 (2020);
          URL http://www.quantum-espresso.org", 
     in publications or presentations arising from this work. More details at
     http://www.quantum-espresso.org/quote

     Parallel version (MPI & OpenMP), running on       2 processor cores
     Number of MPI processes:                 2
     Threads/MPI process:                     1

     MPI processes distributed on     1 nodes
     K-points division:     npool     =       2
     Reading input from fe.scf.4.7.in

     Current dimensions of program PWSCF are:
     Max number of different atomic species (ntypx) = 10
     Max number of k-points (npk) =  40000
     Max angular momentum in pseudopotentials (lmaxx) =  3

     Subspace diagonalization in iterative solution of the eigenvalue problem:
     a serial algorithm will be used


     G-vector sticks info
     --------------------
     sticks:   dense  smooth     PW     G-vecs:    dense   smooth      PW
     Sum        1051     345    117                21769     4093     767

     Using Slab Decomposition



     bravais-lattice index     =            3
     lattice parameter (alat)  =       4.7000  a.u.
     unit-cell volume          =      51.9115 (a.u.)^3
     number of atoms/cell      =            1
     number of atomic types    =            1
     number of electrons       =        16.00
     number of Kohn-Sham states=           12
     kinetic-energy cutoff     =      70.0000  Ry
     charge density cutoff     =     850.0000  Ry
     scf convergence threshold =      1.0E-08
     mixing beta               =       0.7000
     number of iterations used =            8  plain     mixing
     Exchange-correlation= PBE
                           (   1   4   3   4   0   0   0)

     celldm(1)=   4.700000  celldm(2)=   0.000000  celldm(3)=   0.000000
     celldm(4)=   0.000000  celldm(5)=   0.000000  celldm(6)=   0.000000

     crystal axes: (cart. coord. in units of alat)
               a(1) = (   0.500000   0.500000   0.500000 )  
               a(2) = (  -0.500000   0.500000   0.500000 )  
               a(3) = (  -0.500000  -0.500000   0.500000 )  

     reciprocal axes: (cart. coord. in units 2 pi/alat)
               b(1) = (  1.000000  0.000000  1.000000 )  
               b(2) = ( -1.000000  1.000000  0.000000 )  
               b(3) = (  0.000000 -1.000000  1.000000 )  


     PseudoPot. # 1 for Fe read from file:
     /home/pietro/repositories/materials-for-max-qe2021-online-school/pseudo/Fe.pbe-spn-rrkjus_psl.0.2.1.UPF
     MD5 check sum: f9af58635850a145d9bd408d58feeb93
     Pseudo is Ultrasoft + core correction, Zval = 16.0
     Generated using "atomic" code by A. Dal Corso  v.5.0.2 svn rev. 9415
     Using radial grid of 1191 points,  6 beta functions with: 
                l(1) =   0
                l(2) =   0
                l(3) =   1
                l(4) =   1
                l(5) =   2
                l(6) =   2
     Q(r) pseudized with 0 coefficients 


     atomic species   valence    mass     pseudopotential
        Fe            16.00    55.84500     Fe( 1.00)

     Starting magnetic structure 
     atomic species   magnetization
        Fe           0.700

     48 Sym. Ops., with inversion, found



   Cartesian axes

     site n.     atom                  positions (alat units)
         1           Fe  tau(   1) = (   0.0000000   0.0000000   0.0000000  )

     number of k points=    44  Marzari-Vanderbilt smearing, width (Ry)=  0.0200
                       cart. coord. in units 2pi/alat
        k(    1) = (   0.0000000   0.0000000   0.1000000), wk =   0.0060000
        k(    2) = (   0.0000000  -0.1000000   0.2000000), wk =   0.0240000
        k(    3) = (   0.0000000  -0.2000000   0.3000000), wk =   0.0240000
        k(    4) = (   0.0000000  -0.3000000   0.4000000), wk =   0.0240000
        k(    5) = (   0.0000000  -0.4000000   0.5000000), wk =   0.0240000
        k(    6) = (  -0.1000000   0.1000000   0.1000000), wk =   0.0080000
        k(    7) = (  -0.1000000  -0.1000000   0.3000000), wk =   0.0240000
        k(    8) = (  -0.1000000  -0.2000000   0.4000000), wk =   0.0480000
        k(    9) = (  -0.1000000  -0.3000000   0.5000000), wk =   0.0480000
        k(   10) = (  -0.1000000   0.6000000  -0.4000000), wk =   0.0240000
        k(   11) = (  -0.2000000   0.2000000   0.1000000), wk =   0.0240000
        k(   12) = (  -0.2000000  -0.2000000   0.5000000), wk =   0.0240000
        k(   13) = (  -0.2000000   0.7000000  -0.4000000), wk =   0.0480000
        k(   14) = (  -0.3000000   0.3000000   0.1000000), wk =   0.0240000
        k(   15) = (  -0.3000000   0.2000000   0.2000000), wk =   0.0240000
        k(   16) = (  -0.3000000   0.7000000  -0.3000000), wk =   0.0080000
        k(   17) = (  -0.4000000   0.4000000   0.1000000), wk =   0.0240000
        k(   18) = (  -0.4000000   0.3000000   0.2000000), wk =   0.0480000
        k(   19) = (   0.5000000  -0.5000000   0.1000000), wk =   0.0120000
        k(   20) = (   0.5000000  -0.6000000   0.2000000), wk =   0.0480000
        k(   21) = (   0.5000000  -0.7000000   0.3000000), wk =   0.0240000
        k(   22) = (   0.4000000  -0.6000000   0.3000000), wk =   0.0240000
        k(   23) = (   0.0000000   0.0000000   0.3000000), wk =   0.0060000
        k(   24) = (   0.0000000  -0.1000000   0.4000000), wk =   0.0240000
        k(   25) = (   0.0000000  -0.2000000   0.5000000), wk =   0.0240000
        k(   26) = (   0.0000000  -0.3000000   0.6000000), wk =   0.0240000
        k(   27) = (  -0.1000000  -0.1000000   0.5000000), wk =   0.0240000
        k(   28) = (  -0.1000000  -0.2000000   0.6000000), wk =   0.0480000
        k(   29) = (  -0.1000000   0.7000000  -0.3000000), wk =   0.0240000
        k(   30) = (  -0.2000000   0.8000000  -0.3000000), wk =   0.0240000
        k(   31) = (  -0.3000000   0.3000000   0.3000000), wk =   0.0080000
        k(   32) = (   0.6000000  -0.6000000   0.3000000), wk =   0.0240000
        k(   33) = (   0.5000000  -0.5000000   0.3000000), wk =   0.0120000
        k(   34) = (   0.5000000  -0.6000000   0.4000000), wk =   0.0240000
        k(   35) = (   0.0000000   0.0000000   0.5000000), wk =   0.0060000
        k(   36) = (   0.0000000  -0.1000000   0.6000000), wk =   0.0240000
        k(   37) = (   0.0000000  -0.2000000   0.7000000), wk =   0.0240000
        k(   38) = (  -0.1000000  -0.1000000   0.7000000), wk =   0.0240000
        k(   39) = (  -0.1000000   0.8000000  -0.2000000), wk =   0.0240000
        k(   40) = (   0.5000000  -0.5000000   0.5000000), wk =   0.0020000
        k(   41) = (   0.0000000   0.0000000   0.7000000), wk =   0.0060000
        k(   42) = (   0.0000000  -0.1000000   0.8000000), wk =   0.0240000
        k(   43) = (  -0.1000000   0.9000000  -0.1000000), wk =   0.0080000
        k(   44) = (   0.0000000   0.0000000   0.9000000), wk =   0.0060000

     Dense  grid:    21769 G-vectors     FFT dimensions: (  40,  40,  40)

     Smooth grid:     4093 G-vectors     FFT dimensions: (  24,  24,  24)

     Estimated max dynamical RAM per process >      60.66 MB

     Estimated total dynamical RAM >     110.68 MB

     Check: negative core charge=   -0.000012
     Generating pointlists ...
     new r_m :   0.3572 (alat units)  1.6790 (a.u.) for type    1

     Initial potential from superposition of free atoms

     starting charge   15.99956, renormalised to   16.00000
     Starting wfcs are   13 randomized atomic wfcs

     total cpu time spent up to now is        0.7 secs

     Self-consistent Calculation

     iteration #  1     ecut=    70.00 Ry     beta= 0.70
     Davidson diagonalization with overlap
     ethr =  1.00E-02,  avg # of iterations =  4.3

     negative rho (up, down):  0.000E+00 2.755E-05

     total cpu time spent up to now is        1.4 secs

     total energy              =    -253.91996081 Ry
     estimated scf accuracy    <       1.68031873 Ry

     total magnetization       =     3.44 Bohr mag/cell
     absolute magnetization    =     3.44 Bohr mag/cell

     iteration #  2     ecut=    70.00 Ry     beta= 0.70
     Davidson diagonalization with overlap
     ethr =  1.00E-02,  avg # of iterations =  1.0

     negative rho (up, down):  0.000E+00 2.747E-05

     total cpu time spent up to now is        1.9 secs

     total energy              =    -254.19259139 Ry
     estimated scf accuracy    <       0.29858026 Ry

     total magnetization       =     2.58 Bohr mag/cell
     absolute magnetization    =     2.67 Bohr mag/cell

     iteration #  3     ecut=    70.00 Ry     beta= 0.70
     Davidson diagonalization with overlap
     ethr =  1.87E-03,  avg # of iterations =  1.8

     negative rho (up, down):  0.000E+00 2.007E-05

     total cpu time spent up to now is        2.4 secs

     total energy              =    -254.23042513 Ry
     estimated scf accuracy    <       0.12872799 Ry

     total magnetization       =     1.79 Bohr mag/cell
     absolute magnetization    =     1.87 Bohr mag/cell

     iteration #  4     ecut=    70.00 Ry     beta= 0.70
     Davidson diagonalization with overlap
     ethr =  8.05E-04,  avg # of iterations =  2.0

     total cpu time spent up to now is        3.0 secs

     total energy              =    -254.25200807 Ry
     estimated scf accuracy    <       0.00450665 Ry

     total magnetization       =     1.66 Bohr mag/cell
     absolute magnetization    =     1.75 Bohr mag/cell

     iteration #  5     ecut=    70.00 Ry     beta= 0.70
     Davidson diagonalization with overlap
     ethr =  2.82E-05,  avg # of iterations =  3.5

     total cpu time spent up to now is        3.6 secs

     total energy              =    -254.25574149 Ry
     estimated scf accuracy    <       0.00070862 Ry

     total magnetization       =     1.46 Bohr mag/cell
     absolute magnetization    =     1.51 Bohr mag/cell

     iteration #  6     ecut=    70.00 Ry     beta= 0.70
     Davidson diagonalization with overlap
     ethr =  4.43E-06,  avg # of iterations =  2.5

     total cpu time spent up to now is        4.2 secs

     total energy              =    -254.25638673 Ry
     estimated scf accuracy    <       0.00017899 Ry

     total magnetization       =     1.38 Bohr mag/cell
     absolute magnetization    =     1.42 Bohr mag/cell

     iteration #  7     ecut=    70.00 Ry     beta= 0.70
     Davidson diagonalization with overlap
     ethr =  1.12E-06,  avg # of iterations =  2.0

     total cpu time spent up to now is        4.7 secs

     total energy              =    -254.25643341 Ry
     estimated scf accuracy    <       0.00000252 Ry

     total magnetization       =     1.39 Bohr mag/cell
     absolute magnetization    =     1.43 Bohr mag/cell

     iteration #  8     ecut=    70.00 Ry     beta= 0.70
     Davidson diagonalization with overlap
     ethr =  1.57E-08,  avg # of iterations =  4.1

     total cpu time spent up to now is        5.4 secs

     total energy              =    -254.25643724 Ry
     estimated scf accuracy    <       0.00000030 Ry

     total magnetization       =     1.40 Bohr mag/cell
     absolute magnetization    =     1.43 Bohr mag/cell

     iteration #  9     ecut=    70.00 Ry     beta= 0.70
     Davidson diagonalization with overlap
     ethr =  1.89E-09,  avg # of iterations =  1.8

     total cpu time spent up to now is        5.9 secs

     total energy              =    -254.25643731 Ry
     estimated scf accuracy    <       0.00000007 Ry

     total magnetization       =     1.40 Bohr mag/cell
     absolute magnetization    =     1.43 Bohr mag/cell

     iteration # 10     ecut=    70.00 Ry     beta= 0.70
     Davidson diagonalization with overlap
     ethr =  4.15E-10,  avg # of iterations =  2.0

     Magnetic moment per site  (integrated on atomic sphere of radius R)
     atom   1 (R=0.357)  charge= 14.0665  magn=  1.3892

     total cpu time spent up to now is        6.4 secs

     End of self-consistent calculation

 ------ SPIN UP ------------


          k = 0.0000 0.0000 0.1000 (   531 PWs)   bands (ev):

   -59.6312 -24.8555 -24.8257 -24.8257  18.4564  25.7918  25.7918  25.8969
    27.8586  28.1253  56.7029  57.8922

          k = 0.0000-0.1000 0.2000 (   516 PWs)   bands (ev):

   -59.5627 -25.1218 -24.9102 -24.8348  19.5250  25.4349  25.6992  26.6307
    27.4623  28.2578  54.0278  56.7730

          k = 0.0000-0.2000 0.3000 (   518 PWs)   bands (ev):

   -59.4509 -25.5588 -25.0471 -24.8372  21.0969  24.8401  25.5209  27.5114
    27.9708  28.4241  49.8161  54.3021

          k = 0.0000-0.3000 0.4000 (   519 PWs)   bands (ev):

   -59.3375 -25.9849 -25.1819 -24.8396  21.7477  24.2814  26.4271  28.0065
    28.8445  29.4763  45.1195  52.1270

          k = 0.0000-0.4000 0.5000 (   514 PWs)   bands (ev):

   -59.2667 -26.2433 -25.2638 -24.8408  21.5690  23.9524  27.4702  28.1467
    30.3136  30.5210  41.4620  50.8853

          k =-0.1000 0.1000 0.1000 (   516 PWs)   bands (ev):

   -59.5964 -25.0351 -24.8274 -24.8274  19.0088  25.5442  25.5442  26.4987
    27.9386  27.9386  55.8951  55.8951

          k =-0.1000-0.1000 0.3000 (   518 PWs)   bands (ev):

   -59.4740 -25.4196 -25.0097 -24.8959  20.8646  25.2334  25.3056  27.1118
    27.6415  28.5722  51.6600  53.8845

          k =-0.1000-0.2000 0.4000 (   515 PWs)   bands (ev):

   -59.3630 -25.7958 -25.1704 -24.9146  22.1184  24.5874  25.2812  27.4008
    28.7001  29.5935  47.6963  51.1084

          k =-0.1000-0.3000 0.5000 (   518 PWs)   bands (ev):

   -59.2722 -26.0954 -25.3086 -24.9195  22.1663  24.2692  25.9060  27.8723
    29.3572  31.7415  43.2180  49.5377

          k =-0.1000 0.6000-0.4000 (   513 PWs)   bands (ev):

   -59.2372 -26.2085 -25.3612 -24.9202  21.9946  24.1571  26.2784  27.9436
    29.8647  33.2370  40.8291  48.9690

          k =-0.2000 0.2000 0.1000 (   519 PWs)   bands (ev):

   -59.5048 -25.3942 -24.9430 -24.8338  20.4526  24.9772  25.2385  27.6995
    27.7671  28.1012  52.0405  54.1483

          k =-0.2000-0.2000 0.5000 (   511 PWs)   bands (ev):

   -59.2743 -25.9767 -25.3772 -24.9613  22.9553  23.9492  25.2967  27.6449
    28.9925  32.2124  45.3819  46.9440

          k =-0.2000 0.7000-0.4000 (   512 PWs)   bands (ev):

   -59.2192 -26.0500 -25.5573 -24.9755  22.9443  24.0881  25.0940  28.0772
    29.2300  35.2576  41.6112  45.3734

          k =-0.3000 0.3000 0.1000 (   516 PWs)   bands (ev):

   -59.3902 -25.8074 -25.1043 -24.8417  21.7716  24.3707  25.5314  27.9130
    28.2765  29.3758  47.4301  52.0870

          k =-0.3000 0.2000 0.2000 (   516 PWs)   bands (ev):

   -59.4103 -25.7177 -25.0382 -24.9021  21.9582  24.5247  24.6500  27.8085
    28.3052  29.4757  49.4926  50.7861

          k =-0.3000 0.7000-0.3000 (   505 PWs)   bands (ev):

   -59.1989 -25.8462 -25.8462 -24.9895  23.6605  24.1580  24.1580  28.7171
    28.7171  39.0420  39.0420  43.2657

          k =-0.4000 0.4000 0.1000 (   513 PWs)   bands (ev):

   -59.2964 -26.1307 -25.2372 -24.8483  21.8222  23.9275  27.3103  28.2028
    28.4275  31.1421  43.0272  50.4884

          k =-0.4000 0.3000 0.2000 (   512 PWs)   bands (ev):

   -59.3149 -25.9785 -25.2276 -24.9343  22.6653  24.0455  25.2671  28.0203
    28.5257  31.6904  45.3628  48.6508

          k = 0.5000-0.5000 0.1000 (   512 PWs)   bands (ev):

   -59.2603 -26.2526 -25.2878 -24.8508  21.6681  23.7666  28.2598  28.4512
    28.4905  32.1942  40.8345  49.8940

          k = 0.5000-0.6000 0.2000 (   511 PWs)   bands (ev):

   -59.2555 -26.1176 -25.3715 -24.9475  22.4242  23.8231  26.4403  28.2601
    28.7001  33.9618  41.5168  47.6059

          k = 0.5000-0.7000 0.3000 (   506 PWs)   bands (ev):

   -59.2537 -26.0003 -25.4553 -25.0000  23.1594  23.9631  25.1929  28.2235
    28.6900  34.6665  43.1112  45.0790

          k = 0.4000-0.6000 0.3000 (   510 PWs)   bands (ev):

   -59.2302 -25.9432 -25.6154 -25.0189  23.1512  24.0757  25.2276  28.4117
    28.6851  37.1483  40.4373  44.1301

          k = 0.0000 0.0000 0.3000 (   518 PWs)   bands (ev):

   -59.4982 -25.2008 -24.9988 -24.9988  20.4830  25.8782  25.8782  26.4674
    26.6385  28.7078  53.0399  56.8097

          k = 0.0000-0.1000 0.4000 (   519 PWs)   bands (ev):

   -59.3927 -25.5446 -25.1403 -25.0404  21.8588  25.1624  25.5853  26.6594
    27.7952  29.2650  50.3286  53.7447

          k = 0.0000-0.2000 0.5000 (   515 PWs)   bands (ev):

   -59.2860 -25.9257 -25.2797 -25.0346  22.4211  24.8185  25.1248  27.3819
    29.3293  30.6469  45.6818  51.9230

          k = 0.0000-0.3000 0.6000 (   519 PWs)   bands (ev):

   -59.2194 -26.1603 -25.3651 -25.0287  22.1473  24.8415  25.1922  27.5318
    30.4189  33.0524  41.6332  51.0272

          k =-0.1000-0.1000 0.5000 (   516 PWs)   bands (ev):

   -59.2913 -25.7852 -25.3139 -25.1115  22.7833  24.1626  25.8236  26.9300
    28.7490  30.6986  48.2020  49.6042

          k =-0.1000-0.2000 0.6000 (   512 PWs)   bands (ev):

   -59.2084 -26.0058 -25.4756 -25.1152  22.8212  23.9249  25.4498  27.5641
    29.6341  33.4825  43.8686  47.5466

          k =-0.1000 0.7000-0.3000 (   513 PWs)   bands (ev):

   -59.1766 -26.0922 -25.5383 -25.1126  22.5606  24.2282  25.1221  27.7428
    30.1058  35.7887  40.9062  46.9209

          k =-0.2000 0.8000-0.3000 (   508 PWs)   bands (ev):

   -59.1602 -25.9634 -25.7261 -25.1262  23.2084  23.4295  24.9962  28.4863
    29.4574  37.2119  41.6799  43.8785

          k =-0.3000 0.3000 0.3000 (   516 PWs)   bands (ev):

   -59.3313 -25.9260 -25.0734 -25.0734  23.4855  24.0449  24.0449  28.2572
    28.2572  31.7648  47.6048  47.6048

          k = 0.6000-0.6000 0.3000 (   512 PWs)   bands (ev):

   -59.2669 -25.9925 -25.3149 -25.1019  23.3771  23.7951  25.1378  28.3756
    28.4735  34.4379  43.5662  46.3329

          k = 0.5000-0.5000 0.3000 (   512 PWs)   bands (ev):

   -59.2423 -25.9798 -25.4461 -25.1125  23.1650  23.7220  25.7979  28.4511
    28.5328  36.4495  40.8461  45.8838

          k = 0.5000-0.6000 0.4000 (   515 PWs)   bands (ev):

   -59.2373 -25.8378 -25.5190 -25.2232  23.5859  24.1353  24.8813  28.5003
    28.5524  37.6885  41.6381  43.6648

          k = 0.0000 0.0000 0.5000 (   510 PWs)   bands (ev):

   -59.2979 -25.5929 -25.2893 -25.2893  22.6887  24.3452  26.5516  26.5516
    27.8887  30.4481  50.8360  52.1458

          k = 0.0000-0.1000 0.6000 (   511 PWs)   bands (ev):

   -59.2020 -25.8346 -25.4361 -25.3386  22.8716  23.4139  26.6078  27.2310
    29.1257  32.5886  46.7692  49.6881

          k = 0.0000-0.2000 0.7000 (   509 PWs)   bands (ev):

   -59.1422 -26.0247 -25.5258 -25.3244  22.4117  23.3090  26.4506  27.5438
    30.2558  35.7758  42.1448  48.1369

          k =-0.1000-0.1000 0.7000 (   514 PWs)   bands (ev):

   -59.1291 -25.9163 -25.6283 -25.3822  22.5989  22.7212  26.7449  28.2066
    29.7223  35.6448  44.6444  45.5210

          k =-0.1000 0.8000-0.2000 (   508 PWs)   bands (ev):

   -59.1011 -25.9460 -25.7233 -25.3763  22.3067  22.6274  26.6474  28.7143
    30.0144  38.7325  41.2412  44.4903

          k = 0.5000-0.5000 0.5000 (   532 PWs)   bands (ev):

   -59.2312 -25.5439 -25.5439 -25.5439  24.2382  24.2382  24.2382  28.5590
    28.5590  41.1286  41.1286  41.1286

          k = 0.0000 0.0000 0.7000 (   510 PWs)   bands (ev):

   -59.1173 -25.7882 -25.5903 -25.5903  22.3922  22.4363  28.0863  28.0863
    29.2059  35.0125  46.8339  46.8339

          k = 0.0000-0.1000 0.8000 (   506 PWs)   bands (ev):

   -59.0645 -25.8875 -25.6841 -25.6139  21.8235  21.9903  28.3909  28.7501
    30.0971  38.3430  42.9968  45.0277

          k =-0.1000 0.9000-0.1000 (   493 PWs)   bands (ev):

   -59.0396 -25.8263 -25.8263 -25.6285  21.6130  21.6130  28.5796  29.8923
    29.8923  41.5148  41.5148  42.7919

          k = 0.0000 0.0000 0.9000 (   490 PWs)   bands (ev):

   -59.0161 -25.8091 -25.7804 -25.7804  21.2654  21.3074  29.8414  29.8414
    30.0556  40.9119  43.0005  43.0005

 ------ SPIN DOWN ----------


          k = 0.0000 0.0000 0.1000 (   531 PWs)   bands (ev):

   -57.8742 -23.0934 -23.0612 -23.0612  18.6721  26.8696  26.8696  26.9838
    29.8843  30.1906  56.7570  57.8566

          k = 0.0000-0.1000 0.2000 (   516 PWs)   bands (ev):

   -57.8023 -23.3765 -23.1505 -23.0711  19.7572  26.4850  26.7745  27.7437
    29.3886  30.3284  54.3424  56.8939

          k = 0.0000-0.2000 0.3000 (   518 PWs)   bands (ev):

   -57.6847 -23.8398 -23.2945 -23.0738  21.4357  25.8479  26.5707  29.1375
    29.2603  30.4874  50.3737  54.4944

          k = 0.0000-0.3000 0.4000 (   519 PWs)   bands (ev):

   -57.5655 -24.2907 -23.4363 -23.0764  22.4186  25.2531  27.3208  29.6171
    30.7130  30.7630  45.8539  52.3026

          k = 0.0000-0.4000 0.5000 (   514 PWs)   bands (ev):

   -57.4910 -24.5637 -23.5224 -23.0777  22.4083  24.9041  28.6903  29.8598
    31.4977  31.8147  42.3722  51.0306

          k =-0.1000 0.1000 0.1000 (   516 PWs)   bands (ev):

   -57.8377 -23.2841 -23.0631 -23.0631  19.2302  26.6103  26.6103  27.6039
    29.9637  29.9637  56.0663  56.0663

          k =-0.1000-0.1000 0.3000 (   518 PWs)   bands (ev):

   -57.7090 -23.6922 -23.2555 -23.1357  21.1496  26.3163  26.3555  28.7790
    28.8732  30.6364  52.1488  54.2081

          k =-0.1000-0.2000 0.4000 (   515 PWs)   bands (ev):

   -57.5924 -24.0904 -23.4252 -23.1554  22.6303  25.6577  26.2646  29.0011
    30.2630  31.1667  48.3433  51.4981

          k =-0.1000-0.3000 0.5000 (   518 PWs)   bands (ev):

   -57.4968 -24.4070 -23.5708 -23.1606  22.9895  25.2484  26.9604  29.4780
    30.9501  32.9039  44.0170  49.9340

          k =-0.1000 0.6000-0.4000 (   513 PWs)   bands (ev):

   -57.4601 -24.5265 -23.6262 -23.1614  22.8896  25.1132  27.4563  29.6112
    31.3191  34.2112  41.7551  49.3584

          k =-0.2000 0.2000 0.1000 (   519 PWs)   bands (ev):

   -57.7414 -23.6650 -23.1851 -23.0701  20.7097  26.0047  26.2983  28.8499
    29.6624  30.1398  52.4702  54.4178

          k =-0.2000-0.2000 0.5000 (   511 PWs)   bands (ev):

   -57.4992 -24.2812 -23.6445 -23.2044  23.6807  25.0977  26.2132  29.2038
    30.6967  33.3857  46.1269  47.4442

          k =-0.2000 0.7000-0.4000 (   512 PWs)   bands (ev):

   -57.4411 -24.3584 -23.8353 -23.2191  23.8614  25.1129  26.1674  29.6535
    30.7940  36.2295  42.4460  45.9304

          k =-0.3000 0.3000 0.1000 (   516 PWs)   bands (ev):

   -57.6209 -24.1027 -23.3550 -23.0785  22.2533  25.3516  26.4034  29.7182
    30.3462  30.5291  48.0591  52.3490

          k =-0.3000 0.2000 0.2000 (   516 PWs)   bands (ev):

   -57.6421 -24.0074 -23.2861 -23.1422  22.3000  25.5723  25.6089  29.6776
    30.3147  30.6343  50.0198  51.1913

          k =-0.3000 0.7000-0.3000 (   505 PWs)   bands (ev):

   -57.4198 -24.1421 -24.1421 -23.2337  24.5270  25.2670  25.2670  30.2665
    30.2665  39.9104  39.9104  43.8823

          k =-0.4000 0.4000 0.1000 (   513 PWs)   bands (ev):

   -57.5222 -24.4447 -23.4949 -23.0856  22.5988  24.8747  27.9362  29.9534
    30.5322  32.2275  43.8329  50.7041

          k =-0.4000 0.3000 0.2000 (   512 PWs)   bands (ev):

   -57.5417 -24.2833 -23.4863 -23.1765  23.3416  25.0148  26.0346  29.8431
    30.5576  32.7677  46.0309  49.0796

          k = 0.5000-0.5000 0.1000 (   512 PWs)   bands (ev):

   -57.4842 -24.5735 -23.5482 -23.0883  22.5103  24.7019  29.0217  30.0512
    30.6114  33.1378  41.7728  50.0864

          k = 0.5000-0.6000 0.2000 (   511 PWs)   bands (ev):

   -57.4791 -24.4305 -23.6382 -23.1904  23.2635  24.7463  27.2368  30.0775
    30.6760  34.8628  42.3520  48.0187

          k = 0.5000-0.7000 0.3000 (   506 PWs)   bands (ev):

   -57.4772 -24.3060 -23.7282 -23.2457  23.9678  24.9431  25.9787  30.0502
    30.6455  35.6121  43.8259  45.6246

          k = 0.4000-0.6000 0.3000 (   510 PWs)   bands (ev):

   -57.4526 -24.2456 -23.8978 -23.2656  23.9938  25.0078  26.1219  30.2551
    30.5768  37.9577  41.2430  44.7033

          k = 0.0000 0.0000 0.3000 (   518 PWs)   bands (ev):

   -57.7345 -23.4615 -23.2440 -23.2440  20.7476  26.9285  26.9285  27.7547
    28.2872  30.7879  53.4685  57.0853

          k = 0.0000-0.1000 0.4000 (   519 PWs)   bands (ev):

   -57.6238 -23.8250 -23.3931 -23.2883  22.2609  26.5091  26.6130  28.0300
    28.9528  31.2352  50.9383  54.0938

          k = 0.0000-0.2000 0.5000 (   515 PWs)   bands (ev):

   -57.5115 -24.2276 -23.5399 -23.2825  23.1829  26.0663  26.1236  28.7737
    30.5571  32.1995  46.4085  52.3145

          k = 0.0000-0.3000 0.6000 (   519 PWs)   bands (ev):

   -57.4414 -24.4752 -23.6298 -23.2763  23.1081  25.8232  26.4401  29.0343
    31.7074  34.1425  42.5068  51.4221

          k =-0.1000-0.1000 0.5000 (   516 PWs)   bands (ev):

   -57.5172 -24.0791 -23.5767 -23.3633  23.4332  25.5320  26.8483  28.1936
    30.0347  32.2705  48.9317  50.0639

          k =-0.1000-0.2000 0.6000 (   512 PWs)   bands (ev):

   -57.4301 -24.3114 -23.7478 -23.3671  23.8239  25.1342  26.4989  28.8897
    30.9698  34.6244  44.6391  48.0994

          k =-0.1000 0.7000-0.3000 (   513 PWs)   bands (ev):

   -57.3966 -24.4023 -23.8140 -23.3644  23.6516  25.4728  26.1245  29.1059
    31.4283  36.7384  41.7771  47.4719

          k =-0.2000 0.8000-0.3000 (   508 PWs)   bands (ev):

   -57.3795 -24.2656 -24.0137 -23.3782  24.4610  24.5697  25.9875  29.7924
    30.7959  38.1525  42.5274  44.4542

          k =-0.3000 0.3000 0.3000 (   516 PWs)   bands (ev):

   -57.5588 -24.2275 -23.3237 -23.3237  23.9003  25.0053  25.0053  30.2525
    30.2525  32.8349  48.1223  48.1223

          k = 0.6000-0.6000 0.3000 (   512 PWs)   bands (ev):

   -57.4910 -24.2978 -23.5794 -23.3542  24.1887  24.6915  25.8227  30.3422
    30.5650  35.3628  44.2275  46.8218

          k = 0.5000-0.5000 0.3000 (   512 PWs)   bands (ev):

   -57.4651 -24.2847 -23.7180 -23.3656  23.9994  24.5948  26.5283  30.4094
    30.6610  37.2085  41.6462  46.3582

          k = 0.5000-0.6000 0.4000 (   515 PWs)   bands (ev):

   -57.4598 -24.1340 -23.7962 -23.4826  24.4169  24.9882  25.6362  30.5434
    30.6478  38.4585  42.3042  44.2488

          k = 0.0000 0.0000 0.5000 (   510 PWs)   bands (ev):

   -57.5242 -23.8769 -23.5505 -23.5505  23.3172  25.9053  27.5970  27.5970
    29.0580  32.1410  51.5900  52.6206

          k = 0.0000-0.1000 0.6000 (   511 PWs)   bands (ev):

   -57.4235 -24.1306 -23.7055 -23.6034  23.8445  24.7963  27.6574  28.3766
    30.3438  33.8445  47.4431  50.1648

          k = 0.0000-0.2000 0.7000 (   509 PWs)   bands (ev):

   -57.3607 -24.3303 -23.8001 -23.5887  23.6107  24.5685  27.4936  28.7467
    31.5361  36.7187  42.9153  48.5847

          k =-0.1000-0.1000 0.7000 (   514 PWs)   bands (ev):

   -57.3471 -24.2156 -23.9090 -23.6491  23.8784  23.9388  27.8000  29.3643
    30.9852  36.5938  45.3613  46.0303

          k =-0.1000 0.8000-0.2000 (   508 PWs)   bands (ev):

   -57.3177 -24.2462 -24.0097 -23.6427  23.5809  23.8948  27.6759  29.9139
    31.2881  39.5425  41.9834  45.0280

          k = 0.5000-0.5000 0.5000 (   532 PWs)   bands (ev):

   -57.4533 -23.8226 -23.8226 -23.8226  25.0381  25.0381  25.0381  30.6918
    30.6918  41.7713  41.7713  41.7713

          k = 0.0000 0.0000 0.7000 (   510 PWs)   bands (ev):

   -57.3347 -24.0807 -23.8684 -23.8684  23.5873  23.7627  29.1922  29.1922
    30.4365  35.9516  47.2851  47.2851

          k = 0.0000-0.1000 0.8000 (   506 PWs)   bands (ev):

   -57.2793 -24.1838 -23.9675 -23.8938  23.1190  23.2462  29.5297  29.9021
    31.3697  39.0571  43.5534  45.4286

          k =-0.1000 0.9000-0.1000 (   493 PWs)   bands (ev):

   -57.2533 -24.1184 -24.1184 -23.9089  22.8894  22.8894  29.7193  31.1420
    31.1420  42.0725  42.0725  43.2131

          k = 0.0000 0.0000 0.9000 (   490 PWs)   bands (ev):

   -57.2287 -24.1001 -24.0692 -24.0692  22.5441  22.5704  31.0833  31.0833
    31.3291  41.3625  43.3219  43.3219

     the Fermi energy is    29.0409 ev

!    total energy              =    -254.25643735 Ry
     estimated scf accuracy    <          9.5E-10 Ry
     smearing contrib. (-TS)   =       0.00061879 Ry
     internal energy E=F+TS    =    -254.25705614 Ry

     The total energy is F=E-TS. E is the sum of the following terms:
     one-electron contribution =     -73.47930624 Ry
     hartree contribution      =      52.62087559 Ry
     xc contribution           =     -35.17654823 Ry
     ewald contribution        =    -198.22207725 Ry

     total magnetization       =     1.39 Bohr mag/cell
     absolute magnetization    =     1.43 Bohr mag/cell

     convergence has been achieved in  10 iterations

     Writing output data file ./tempdir/fe.save/

     init_run     :      0.65s CPU      0.66s WALL (       1 calls)
     electrons    :      5.66s CPU      5.72s WALL (       1 calls)

     Called by init_run:
     wfcinit      :      0.15s CPU      0.15s WALL (       1 calls)
     potinit      :      0.06s CPU      0.06s WALL (       1 calls)
     hinit0       :      0.39s CPU      0.39s WALL (       1 calls)

     Called by electrons:
     c_bands      :      3.33s CPU      3.37s WALL (      10 calls)
     sum_band     :      1.30s CPU      1.33s WALL (      10 calls)
     v_of_rho     :      0.59s CPU      0.59s WALL (      11 calls)
     newd         :      0.45s CPU      0.45s WALL (      11 calls)
     mix_rho      :      0.04s CPU      0.04s WALL (      10 calls)

     Called by c_bands:
     init_us_2    :      0.08s CPU      0.08s WALL (     924 calls)
     cegterg      :      2.92s CPU      2.96s WALL (     440 calls)

     Called by *egterg:
     cdiaghg      :      0.15s CPU      0.15s WALL (    1531 calls)
     h_psi        :      2.65s CPU      2.68s WALL (    1575 calls)
     s_psi        :      0.04s CPU      0.04s WALL (    1575 calls)
     g_psi        :      0.01s CPU      0.01s WALL (    1091 calls)

     Called by h_psi:
     h_psi:calbec :      0.05s CPU      0.05s WALL (    1575 calls)
     vloc_psi     :      2.55s CPU      2.58s WALL (    1575 calls)
     add_vuspsi   :      0.04s CPU      0.04s WALL (    1575 calls)

     General routines
     calbec       :      0.07s CPU      0.07s WALL (    2015 calls)
     fft          :      0.24s CPU      0.25s WALL (     269 calls)
     ffts         :      0.01s CPU      0.01s WALL (      42 calls)
     fftw         :      2.73s CPU      2.77s WALL (   31682 calls)
     interpolate  :      0.03s CPU      0.03s WALL (      22 calls)

     Parallel routines

     PWSCF        :      6.38s CPU      6.47s WALL


   This run was terminated on:   0:17:45  19Apr2021            

=------------------------------------------------------------------------------=
   JOB DONE.
=------------------------------------------------------------------------------=
