
     Program PWSCF v.6.7GPU starts on 19Apr2021 at  0:10:24 

     This program is part of the open-source Quantum ESPRESSO suite
     for quantum simulation of materials; please cite
         "P. Giannozzi et al., J. Phys.:Condens. Matter 21 395502 (2009);
         "P. Giannozzi et al., J. Phys.:Condens. Matter 29 465901 (2017);
         "P. Giannozzi et al., J. Chem. Phys. 152 154105 (2020);
          URL http://www.quantum-espresso.org", 
     in publications or presentations arising from this work. More details at
     http://www.quantum-espresso.org/quote

     Parallel version (MPI & OpenMP), running on       2 processor cores
     Number of MPI processes:                 2
     Threads/MPI process:                     1

     MPI processes distributed on     1 nodes
     K-points division:     npool     =       2
     Reading input from fe.scf.5.396.in

     Current dimensions of program PWSCF are:
     Max number of different atomic species (ntypx) = 10
     Max number of k-points (npk) =  40000
     Max angular momentum in pseudopotentials (lmaxx) =  3

     Subspace diagonalization in iterative solution of the eigenvalue problem:
     a serial algorithm will be used


     G-vector sticks info
     --------------------
     sticks:   dense  smooth     PW     G-vecs:    dense   smooth      PW
     Sum        1399     467    139                32997     6339    1061

     Using Slab Decomposition



     bravais-lattice index     =            3
     lattice parameter (alat)  =       5.3960  a.u.
     unit-cell volume          =      78.5572 (a.u.)^3
     number of atoms/cell      =            1
     number of atomic types    =            1
     number of electrons       =        16.00
     number of Kohn-Sham states=           12
     kinetic-energy cutoff     =      70.0000  Ry
     charge density cutoff     =     850.0000  Ry
     scf convergence threshold =      1.0E-08
     mixing beta               =       0.7000
     number of iterations used =            8  plain     mixing
     Exchange-correlation= PBE
                           (   1   4   3   4   0   0   0)

     celldm(1)=   5.396000  celldm(2)=   0.000000  celldm(3)=   0.000000
     celldm(4)=   0.000000  celldm(5)=   0.000000  celldm(6)=   0.000000

     crystal axes: (cart. coord. in units of alat)
               a(1) = (   0.500000   0.500000   0.500000 )  
               a(2) = (  -0.500000   0.500000   0.500000 )  
               a(3) = (  -0.500000  -0.500000   0.500000 )  

     reciprocal axes: (cart. coord. in units 2 pi/alat)
               b(1) = (  1.000000  0.000000  1.000000 )  
               b(2) = ( -1.000000  1.000000  0.000000 )  
               b(3) = (  0.000000 -1.000000  1.000000 )  


     PseudoPot. # 1 for Fe read from file:
     /home/pietro/repositories/materials-for-max-qe2021-online-school/pseudo/Fe.pbe-spn-rrkjus_psl.0.2.1.UPF
     MD5 check sum: f9af58635850a145d9bd408d58feeb93
     Pseudo is Ultrasoft + core correction, Zval = 16.0
     Generated using "atomic" code by A. Dal Corso  v.5.0.2 svn rev. 9415
     Using radial grid of 1191 points,  6 beta functions with: 
                l(1) =   0
                l(2) =   0
                l(3) =   1
                l(4) =   1
                l(5) =   2
                l(6) =   2
     Q(r) pseudized with 0 coefficients 


     atomic species   valence    mass     pseudopotential
        Fe            16.00    55.84500     Fe( 1.00)

     Starting magnetic structure 
     atomic species   magnetization
        Fe           0.700

     48 Sym. Ops., with inversion, found



   Cartesian axes

     site n.     atom                  positions (alat units)
         1           Fe  tau(   1) = (   0.0000000   0.0000000   0.0000000  )

     number of k points=    44  Marzari-Vanderbilt smearing, width (Ry)=  0.0200
                       cart. coord. in units 2pi/alat
        k(    1) = (   0.0000000   0.0000000   0.1000000), wk =   0.0060000
        k(    2) = (   0.0000000  -0.1000000   0.2000000), wk =   0.0240000
        k(    3) = (   0.0000000  -0.2000000   0.3000000), wk =   0.0240000
        k(    4) = (   0.0000000  -0.3000000   0.4000000), wk =   0.0240000
        k(    5) = (   0.0000000  -0.4000000   0.5000000), wk =   0.0240000
        k(    6) = (  -0.1000000   0.1000000   0.1000000), wk =   0.0080000
        k(    7) = (  -0.1000000  -0.1000000   0.3000000), wk =   0.0240000
        k(    8) = (  -0.1000000  -0.2000000   0.4000000), wk =   0.0480000
        k(    9) = (  -0.1000000  -0.3000000   0.5000000), wk =   0.0480000
        k(   10) = (  -0.1000000   0.6000000  -0.4000000), wk =   0.0240000
        k(   11) = (  -0.2000000   0.2000000   0.1000000), wk =   0.0240000
        k(   12) = (  -0.2000000  -0.2000000   0.5000000), wk =   0.0240000
        k(   13) = (  -0.2000000   0.7000000  -0.4000000), wk =   0.0480000
        k(   14) = (  -0.3000000   0.3000000   0.1000000), wk =   0.0240000
        k(   15) = (  -0.3000000   0.2000000   0.2000000), wk =   0.0240000
        k(   16) = (  -0.3000000   0.7000000  -0.3000000), wk =   0.0080000
        k(   17) = (  -0.4000000   0.4000000   0.1000000), wk =   0.0240000
        k(   18) = (  -0.4000000   0.3000000   0.2000000), wk =   0.0480000
        k(   19) = (   0.5000000  -0.5000000   0.1000000), wk =   0.0120000
        k(   20) = (   0.5000000  -0.6000000   0.2000000), wk =   0.0480000
        k(   21) = (   0.5000000  -0.7000000   0.3000000), wk =   0.0240000
        k(   22) = (   0.4000000  -0.6000000   0.3000000), wk =   0.0240000
        k(   23) = (   0.0000000   0.0000000   0.3000000), wk =   0.0060000
        k(   24) = (   0.0000000  -0.1000000   0.4000000), wk =   0.0240000
        k(   25) = (   0.0000000  -0.2000000   0.5000000), wk =   0.0240000
        k(   26) = (   0.0000000  -0.3000000   0.6000000), wk =   0.0240000
        k(   27) = (  -0.1000000  -0.1000000   0.5000000), wk =   0.0240000
        k(   28) = (  -0.1000000  -0.2000000   0.6000000), wk =   0.0480000
        k(   29) = (  -0.1000000   0.7000000  -0.3000000), wk =   0.0240000
        k(   30) = (  -0.2000000   0.8000000  -0.3000000), wk =   0.0240000
        k(   31) = (  -0.3000000   0.3000000   0.3000000), wk =   0.0080000
        k(   32) = (   0.6000000  -0.6000000   0.3000000), wk =   0.0240000
        k(   33) = (   0.5000000  -0.5000000   0.3000000), wk =   0.0120000
        k(   34) = (   0.5000000  -0.6000000   0.4000000), wk =   0.0240000
        k(   35) = (   0.0000000   0.0000000   0.5000000), wk =   0.0060000
        k(   36) = (   0.0000000  -0.1000000   0.6000000), wk =   0.0240000
        k(   37) = (   0.0000000  -0.2000000   0.7000000), wk =   0.0240000
        k(   38) = (  -0.1000000  -0.1000000   0.7000000), wk =   0.0240000
        k(   39) = (  -0.1000000   0.8000000  -0.2000000), wk =   0.0240000
        k(   40) = (   0.5000000  -0.5000000   0.5000000), wk =   0.0020000
        k(   41) = (   0.0000000   0.0000000   0.7000000), wk =   0.0060000
        k(   42) = (   0.0000000  -0.1000000   0.8000000), wk =   0.0240000
        k(   43) = (  -0.1000000   0.9000000  -0.1000000), wk =   0.0080000
        k(   44) = (   0.0000000   0.0000000   0.9000000), wk =   0.0060000

     Dense  grid:    32997 G-vectors     FFT dimensions: (  45,  45,  45)

     Smooth grid:     6339 G-vectors     FFT dimensions: (  25,  25,  25)

     Estimated max dynamical RAM per process >      90.10 MB

     Estimated total dynamical RAM >     164.10 MB

     Check: negative core charge=   -0.000010
     Generating pointlists ...
     new r_m :   0.3572 (alat units)  1.9276 (a.u.) for type    1

     Initial potential from superposition of free atoms

     starting charge   15.99956, renormalised to   16.00000
     Starting wfcs are   13 randomized atomic wfcs

     total cpu time spent up to now is        0.9 secs

     Self-consistent Calculation

     iteration #  1     ecut=    70.00 Ry     beta= 0.70
     Davidson diagonalization with overlap
     ethr =  1.00E-02,  avg # of iterations =  3.1

     negative rho (up, down):  0.000E+00 6.046E-05

     total cpu time spent up to now is        1.8 secs

     total energy              =    -254.08050759 Ry
     estimated scf accuracy    <       1.49549684 Ry

     total magnetization       =     3.86 Bohr mag/cell
     absolute magnetization    =     3.89 Bohr mag/cell

     iteration #  2     ecut=    70.00 Ry     beta= 0.70
     Davidson diagonalization with overlap
     ethr =  9.35E-03,  avg # of iterations =  1.3

     negative rho (up, down):  0.000E+00 6.730E-05

     total cpu time spent up to now is        2.6 secs

     total energy              =    -254.26641046 Ry
     estimated scf accuracy    <       0.35496345 Ry

     total magnetization       =     3.03 Bohr mag/cell
     absolute magnetization    =     3.19 Bohr mag/cell

     iteration #  3     ecut=    70.00 Ry     beta= 0.70
     Davidson diagonalization with overlap
     ethr =  2.22E-03,  avg # of iterations =  2.0

     negative rho (up, down):  0.000E+00 7.077E-05

     total cpu time spent up to now is        3.5 secs

     total energy              =    -254.29324280 Ry
     estimated scf accuracy    <       0.45428737 Ry

     total magnetization       =     2.54 Bohr mag/cell
     absolute magnetization    =     2.69 Bohr mag/cell

     iteration #  4     ecut=    70.00 Ry     beta= 0.70
     Davidson diagonalization with overlap
     ethr =  2.22E-03,  avg # of iterations =  2.0

     negative rho (up, down):  0.000E+00 4.997E-05

     total cpu time spent up to now is        4.3 secs

     total energy              =    -254.36716246 Ry
     estimated scf accuracy    <       0.00150797 Ry

     total magnetization       =     2.35 Bohr mag/cell
     absolute magnetization    =     2.52 Bohr mag/cell

     iteration #  5     ecut=    70.00 Ry     beta= 0.70
     Davidson diagonalization with overlap
     ethr =  9.42E-06,  avg # of iterations =  6.1

     negative rho (up, down):  0.000E+00 4.726E-05

     total cpu time spent up to now is        5.5 secs

     total energy              =    -254.36950936 Ry
     estimated scf accuracy    <       0.00048388 Ry

     total magnetization       =     2.28 Bohr mag/cell
     absolute magnetization    =     2.42 Bohr mag/cell

     iteration #  6     ecut=    70.00 Ry     beta= 0.70
     Davidson diagonalization with overlap
     ethr =  3.02E-06,  avg # of iterations =  1.7

     negative rho (up, down):  0.000E+00 4.074E-05

     total cpu time spent up to now is        6.4 secs

     total energy              =    -254.36958937 Ry
     estimated scf accuracy    <       0.00007784 Ry

     total magnetization       =     2.27 Bohr mag/cell
     absolute magnetization    =     2.41 Bohr mag/cell

     iteration #  7     ecut=    70.00 Ry     beta= 0.70
     Davidson diagonalization with overlap
     ethr =  4.86E-07,  avg # of iterations =  2.6

     negative rho (up, down):  0.000E+00 4.272E-05

     total cpu time spent up to now is        7.3 secs

     total energy              =    -254.36966496 Ry
     estimated scf accuracy    <       0.00000633 Ry

     total magnetization       =     2.26 Bohr mag/cell
     absolute magnetization    =     2.38 Bohr mag/cell

     iteration #  8     ecut=    70.00 Ry     beta= 0.70
     Davidson diagonalization with overlap
     ethr =  3.96E-08,  avg # of iterations =  2.5

     negative rho (up, down):  0.000E+00 4.212E-05

     total cpu time spent up to now is        8.2 secs

     total energy              =    -254.36966760 Ry
     estimated scf accuracy    <       0.00000501 Ry

     total magnetization       =     2.26 Bohr mag/cell
     absolute magnetization    =     2.38 Bohr mag/cell

     iteration #  9     ecut=    70.00 Ry     beta= 0.70
     Davidson diagonalization with overlap
     ethr =  3.13E-08,  avg # of iterations =  1.5

     negative rho (up, down):  0.000E+00 4.207E-05

     total cpu time spent up to now is        9.0 secs

     total energy              =    -254.36966885 Ry
     estimated scf accuracy    <       0.00000001 Ry

     total magnetization       =     2.26 Bohr mag/cell
     absolute magnetization    =     2.38 Bohr mag/cell

     iteration # 10     ecut=    70.00 Ry     beta= 0.70
     Davidson diagonalization with overlap
     ethr =  7.61E-11,  avg # of iterations =  6.2

     negative rho (up, down):  0.000E+00 4.203E-05

     Magnetic moment per site  (integrated on atomic sphere of radius R)
     atom   1 (R=0.357)  charge= 14.4136  magn=  2.3073

     total cpu time spent up to now is       10.3 secs

     End of self-consistent calculation

 ------ SPIN UP ------------


          k = 0.0000 0.0000 0.1000 (   775 PWs)   bands (ev):

   -70.4056 -36.2382 -36.2319 -36.2319   9.5427  15.4596  15.4596  15.5160
    16.5502  16.6749  41.1554  42.1635

          k = 0.0000-0.1000 0.2000 (   768 PWs)   bands (ev):

   -70.3928 -36.3047 -36.2551 -36.2335  10.3241  15.2790  15.4214  15.9150
    16.3588  16.7352  37.8581  40.5361

          k = 0.0000-0.2000 0.3000 (   777 PWs)   bands (ev):

   -70.3721 -36.4164 -36.2931 -36.2331  11.6578  14.9699  15.3002  16.3730
    16.6394  16.8080  33.2787  38.4111

          k = 0.0000-0.3000 0.4000 (   778 PWs)   bands (ev):

   -70.3514 -36.5259 -36.3309 -36.2326  12.7341  14.6725  15.7191  16.6181
    17.0415  17.4443  28.8410  36.7423

          k = 0.0000-0.4000 0.5000 (   786 PWs)   bands (ev):

   -70.3386 -36.5931 -36.3547 -36.2327  12.9438  14.4943  16.3500  16.6717
    17.9940  18.2723  25.4406  35.8360

          k =-0.1000 0.1000 0.1000 (   758 PWs)   bands (ev):

   -70.3990 -36.2835 -36.2317 -36.2317   9.9405  15.3351  15.3351  15.8382
    16.5864  16.5864  39.7976  39.7976

          k =-0.1000-0.1000 0.3000 (   765 PWs)   bands (ev):

   -70.3763 -36.3809 -36.2805 -36.2494  11.3807  15.1968  15.2079  16.1828
    16.4596  16.8782  35.4707  36.6876

          k =-0.1000-0.2000 0.4000 (   778 PWs)   bands (ev):

   -70.3559 -36.4783 -36.3247 -36.2539  12.6701  14.8439  15.1476  16.3224
    16.9597  17.4987  31.3066  34.4363

          k =-0.1000-0.3000 0.5000 (   780 PWs)   bands (ev):

   -70.3394 -36.5558 -36.3630 -36.2543  13.2259  14.6620  15.4675  16.5523
    17.3416  18.9057  27.1727  33.2076

          k =-0.1000 0.6000-0.4000 (   779 PWs)   bands (ev):

   -70.3330 -36.5853 -36.3777 -36.2541  13.2425  14.6014  15.7037  16.5784
    17.6492  20.1938  24.9135  32.7632

          k =-0.2000 0.2000 0.1000 (   770 PWs)   bands (ev):

   -70.3821 -36.3753 -36.2629 -36.2326  11.0446  15.0422  15.1809  16.4777
    16.5059  16.6602  35.6049  37.9034

          k =-0.2000-0.2000 0.5000 (   777 PWs)   bands (ev):

   -70.3396 -36.5264 -36.3765 -36.2676  13.5740  14.4916  15.1492  16.4502
    17.1135  19.1451  29.5022  30.2593

          k =-0.2000 0.7000-0.4000 (   773 PWs)   bands (ev):

   -70.3295 -36.5457 -36.4229 -36.2714  13.8065  14.5393  15.0433  16.6660
    17.2728  21.4444  25.9965  29.1212

          k =-0.3000 0.3000 0.1000 (   783 PWs)   bands (ev):

   -70.3612 -36.4809 -36.3078 -36.2339  12.4078  14.7194  15.2337  16.5625
    16.7370  17.4029  31.0375  36.2117

          k =-0.3000 0.2000 0.2000 (   780 PWs)   bands (ev):

   -70.3650 -36.4595 -36.2867 -36.2503  12.2975  14.8083  14.8457  16.5157
    16.7494  17.4561  33.3351  34.2066

          k =-0.3000 0.7000-0.3000 (   772 PWs)   bands (ev):

   -70.3258 -36.4949 -36.4949 -36.2760  14.2802  14.5361  14.5361  17.0049
    17.0049  24.3718  24.3718  26.8692

          k =-0.4000 0.4000 0.1000 (   784 PWs)   bands (ev):

   -70.3442 -36.5638 -36.3450 -36.2345  12.9938  14.4780  16.2499  16.7119
    16.7997  18.5011  26.9604  35.0501

          k =-0.4000 0.3000 0.2000 (   775 PWs)   bands (ev):

   -70.3477 -36.5258 -36.3364 -36.2576  13.3387  14.5343  15.0489  16.6172
    16.8497  18.8018  29.2880  32.3924

          k = 0.5000-0.5000 0.1000 (   774 PWs)   bands (ev):

   -70.3377 -36.5946 -36.3590 -36.2344  13.0249  14.3893  16.7201  16.8251
    17.0249  19.4235  24.8531  34.6372

          k = 0.5000-0.6000 0.2000 (   777 PWs)   bands (ev):

   -70.3370 -36.5603 -36.3758 -36.2601  13.4598  14.4061  15.7668  16.7290
    16.9511  20.5509  25.7095  31.5759

          k = 0.5000-0.7000 0.3000 (   773 PWs)   bands (ev):

   -70.3367 -36.5313 -36.3926 -36.2750  13.9035  14.4468  15.0290  16.7191
    16.9377  20.9091  27.6960  28.6526

          k = 0.4000-0.6000 0.3000 (   776 PWs)   bands (ev):

   -70.3326 -36.5158 -36.4337 -36.2801  13.9560  14.4926  15.0889  16.8099
    16.9485  22.9979  25.1712  27.9406

          k = 0.0000 0.0000 0.3000 (   763 PWs)   bands (ev):

   -70.3806 -36.3211 -36.2787 -36.2787  11.0537  15.5195  15.5195  15.8807
    15.9300  16.9418  37.4237  39.0186

          k = 0.0000-0.1000 0.4000 (   778 PWs)   bands (ev):

   -70.3610 -36.4118 -36.3182 -36.2881  12.2619  15.1834  15.3718  15.9459
    16.5541  17.2140  33.8334  36.8918

          k = 0.0000-0.2000 0.5000 (   776 PWs)   bands (ev):

   -70.3412 -36.5123 -36.3569 -36.2852  13.2039  14.9141  15.1288  16.3179
    17.3713  18.0905  29.3569  35.1381

          k = 0.0000-0.3000 0.6000 (   777 PWs)   bands (ev):

   -70.3290 -36.5746 -36.3808 -36.2828  13.3428  14.9768  15.1040  16.3840
    17.9421  19.9903  25.7058  34.0962

          k =-0.1000-0.1000 0.5000 (   778 PWs)   bands (ev):

   -70.3420 -36.4762 -36.3633 -36.3082  13.2467  14.6627  15.4939  16.0940
    17.0462  18.0851  31.8601  32.5085

          k =-0.1000-0.2000 0.6000 (   778 PWs)   bands (ev):

   -70.3266 -36.5360 -36.4065 -36.3094  13.6950  14.4294  15.2999  16.4219
    17.5169  20.0685  27.8453  30.9766

          k =-0.1000 0.7000-0.3000 (   782 PWs)   bands (ev):

   -70.3207 -36.5598 -36.4234 -36.3088  13.6560  14.5842  15.1232  16.5090
    17.7751  22.0061  25.1665  30.5006

          k =-0.2000 0.8000-0.3000 (   777 PWs)   bands (ev):

   -70.3175 -36.5281 -36.4691 -36.3145  14.0783  14.1202  15.0413  16.9151
    17.4255  22.8788  26.3661  27.5939

          k =-0.3000 0.3000 0.3000 (   784 PWs)   bands (ev):

   -70.3509 -36.5132 -36.2938 -36.2938  13.5362  14.5290  14.5290  16.7240
    16.7240  18.8242  31.6998  31.6998

          k = 0.6000-0.6000 0.3000 (   781 PWs)   bands (ev):

   -70.3395 -36.5288 -36.3561 -36.2994  13.9937  14.3751  14.9513  16.7793
    16.8196  20.7198  27.8479  30.6715

          k = 0.5000-0.5000 0.3000 (   782 PWs)   bands (ev):

   -70.3352 -36.5238 -36.3912 -36.3014  13.9115  14.3280  15.3972  16.8149
    16.8443  22.4999  25.2422  30.3200

          k = 0.5000-0.6000 0.4000 (   779 PWs)   bands (ev):

   -70.3344 -36.4878 -36.4059 -36.3301  14.2096  14.5051  14.8635  16.8358
    16.8567  23.2902  26.5546  27.6635

          k = 0.0000 0.0000 0.5000 (   771 PWs)   bands (ev):

   -70.3428 -36.4218 -36.3583 -36.3583  13.1063  14.7925  15.8929  15.8929
    16.6139  17.8816  34.4470  34.4470

          k = 0.0000-0.1000 0.6000 (   776 PWs)   bands (ev):

   -70.3247 -36.4913 -36.3989 -36.3687  13.6140  14.2472  15.9306  16.2572
    17.2699  19.3761  30.3060  32.5169

          k = 0.0000-0.2000 0.7000 (   776 PWs)   bands (ev):

   -70.3135 -36.5449 -36.4236 -36.3640  13.6148  14.0957  15.8496  16.4150
    17.8590  21.8800  26.3708  31.3902

          k =-0.1000-0.1000 0.7000 (   767 PWs)   bands (ev):

   -70.3107 -36.5171 -36.4480 -36.3822  13.7044  13.8068  16.0023  16.7852
    17.5797  21.6858  28.7123  29.1957

          k =-0.1000 0.8000-0.2000 (   774 PWs)   bands (ev):

   -70.3054 -36.5280 -36.4726 -36.3815  13.6046  13.7484  15.9481  17.0517
    17.7339  24.2177  25.7794  28.4817

          k = 0.5000-0.5000 0.5000 (   784 PWs)   bands (ev):

   -70.3336 -36.4112 -36.4112 -36.4112  14.5491  14.5491  14.5491  16.8563
    16.8563  26.1639  26.1639  26.1640

          k = 0.0000 0.0000 0.7000 (   771 PWs)   bands (ev):

   -70.3082 -36.4814 -36.4402 -36.4402  13.5341  13.7201  16.7266  16.7266
    17.3147  21.2237  30.4182  30.4182

          k = 0.0000-0.1000 0.8000 (   776 PWs)   bands (ev):

   -70.2980 -36.5149 -36.4660 -36.4448  13.3635  13.4142  16.8914  17.0785
    17.7777  23.8831  27.4328  29.1682

          k =-0.1000 0.9000-0.1000 (   784 PWs)   bands (ev):

   -70.2931 -36.5023 -36.5023 -36.4515  13.2416  13.2416  16.9914  17.6742
    17.6742  26.4879  26.4879  27.2812

          k = 0.0000 0.0000 0.9000 (   776 PWs)   bands (ev):

   -70.2883 -36.4981 -36.4924 -36.4924  13.0725  13.0734  17.6490  17.6490
    17.7559  26.0893  27.8101  27.8101

 ------ SPIN DOWN ----------


          k = 0.0000 0.0000 0.1000 (   775 PWs)   bands (ev):

   -67.5573 -33.4228 -33.4154 -33.4154   9.7107  17.4443  17.4443  17.5148
    19.3594  19.5232  41.0416  42.0014

          k = 0.0000-0.1000 0.2000 (   768 PWs)   bands (ev):

   -67.5432 -33.4978 -33.4412 -33.4173  10.5031  17.2236  17.3767  17.9526
    19.0830  19.5933  38.1634  40.6135

          k = 0.0000-0.2000 0.3000 (   777 PWs)   bands (ev):

   -67.5204 -33.6232 -33.4834 -33.4170  11.9236  16.8507  17.1432  18.7575
    18.9737  19.6659  33.9399  38.5346

          k = 0.0000-0.3000 0.4000 (   778 PWs)   bands (ev):

   -67.4975 -33.7462 -33.5252 -33.4167  13.4599  16.4957  17.1183  19.1223
    19.6671  19.7735  29.7895  36.8409

          k = 0.0000-0.4000 0.5000 (   786 PWs)   bands (ev):

   -67.4834 -33.8215 -33.5514 -33.4168  14.2056  16.2846  17.7819  19.2474
    20.0321  20.3006  26.7589  35.9029

          k =-0.1000 0.1000 0.1000 (   758 PWs)   bands (ev):

   -67.5501 -33.4738 -33.4153 -33.4153  10.1124  17.2964  17.2964  17.8636
    19.3999  19.3999  39.9173  39.9173

          k =-0.1000-0.1000 0.3000 (   765 PWs)   bands (ev):

   -67.5250 -33.5833 -33.4697 -33.4352  11.6037  17.0973  17.1416  18.5354
    18.7765  19.7374  35.9654  37.1818

          k =-0.1000-0.2000 0.4000 (   778 PWs)   bands (ev):

   -67.5025 -33.6926 -33.5188 -33.4402  13.1287  16.7134  16.9046  18.8017
    19.4142  19.9323  32.0808  34.9801

          k =-0.1000-0.3000 0.5000 (   780 PWs)   bands (ev):

   -67.4842 -33.7795 -33.5613 -33.4408  14.3297  16.4552  16.9612  19.0379
    19.8367  20.7918  28.2376  33.7543

          k =-0.1000 0.6000-0.4000 (   779 PWs)   bands (ev):

   -67.4772 -33.8125 -33.5776 -33.4407  14.6268  16.3815  17.2284  19.1151
    20.0215  21.5932  26.2824  33.3007

          k =-0.2000 0.2000 0.1000 (   770 PWs)   bands (ev):

   -67.5314 -33.5769 -33.4501 -33.4164  11.2469  16.9423  17.0868  18.5659
    19.2170  19.4921  36.0905  38.1656

          k =-0.2000-0.2000 0.5000 (   777 PWs)   bands (ev):

   -67.4845 -33.7463 -33.5771 -33.4553  14.4706  16.3049  16.8009  18.8977
    19.7102  21.0529  30.3833  30.9783

          k =-0.2000 0.7000-0.4000 (   773 PWs)   bands (ev):

   -67.4734 -33.7678 -33.6291 -33.4595  15.2273  16.2482  16.6372  19.1356
    19.7492  22.8614  27.1108  29.8855

          k =-0.3000 0.3000 0.1000 (   783 PWs)   bands (ev):

   -67.5083 -33.6956 -33.4998 -33.4180  12.8251  16.5496  16.8765  19.2147
    19.5099  19.6004  31.8196  36.4820

          k =-0.3000 0.2000 0.2000 (   780 PWs)   bands (ev):

   -67.5124 -33.6713 -33.4767 -33.4362  12.5938  16.6492  16.6515  19.2144
    19.5003  19.6148  33.9321  34.7569

          k =-0.3000 0.7000-0.3000 (   772 PWs)   bands (ev):

   -67.4693 -33.7104 -33.7104 -33.4645  15.8881  16.1579  16.1579  19.4659
    19.4659  25.5080  25.5080  27.8064

          k =-0.4000 0.4000 0.1000 (   784 PWs)   bands (ev):

   -67.4895 -33.7887 -33.5411 -33.4188  14.0482  16.2573  17.2676  19.3207
    19.6958  20.4587  28.0595  35.2807

          k =-0.4000 0.3000 0.2000 (   775 PWs)   bands (ev):

   -67.4934 -33.7458 -33.5323 -33.4445  14.0849  16.2882  16.5385  19.2865
    19.6927  20.7324  30.1395  32.9822

          k = 0.5000-0.5000 0.1000 (   774 PWs)   bands (ev):

   -67.4823 -33.8233 -33.5565 -33.4188  14.3457  16.1503  17.8798  19.3670
    19.7356  20.9836  26.2630  34.8463

          k = 0.5000-0.6000 0.2000 (   777 PWs)   bands (ev):

   -67.4816 -33.7847 -33.5761 -33.4475  14.7697  16.1185  16.9815  19.3991
    19.7506  22.0242  26.8985  32.1563

          k = 0.5000-0.7000 0.3000 (   773 PWs)   bands (ev):

   -67.4812 -33.7519 -33.5957 -33.4640  15.1624  16.0741  16.4192  19.3982
    19.7255  22.4626  28.6133  29.4362

          k = 0.4000-0.6000 0.3000 (   776 PWs)   bands (ev):

   -67.4766 -33.7344 -33.6419 -33.4696  15.4389  16.0800  16.4742  19.5061
    19.6872  24.1663  26.3224  28.7579

          k = 0.0000 0.0000 0.3000 (   763 PWs)   bands (ev):

   -67.5298 -33.5168 -33.4676 -33.4676  11.2558  17.4601  17.4601  17.9763
    18.4779  19.8144  37.6923  39.5196

          k = 0.0000-0.1000 0.4000 (   778 PWs)   bands (ev):

   -67.5081 -33.6182 -33.5113 -33.4783  12.5883  17.2436  17.2776  18.2292
    18.6615  19.9895  34.4917  37.5199

          k = 0.0000-0.2000 0.5000 (   776 PWs)   bands (ev):

   -67.4863 -33.7307 -33.5543 -33.4752  14.0192  16.7685  16.9890  18.5921
    19.5822  20.3748  30.2606  35.7816

          k = 0.0000-0.3000 0.6000 (   777 PWs)   bands (ev):

   -67.4729 -33.8003 -33.5807 -33.4727  14.7358  16.7663  16.8091  18.7628
    20.2414  21.4666  26.9288  34.7040

          k =-0.1000-0.1000 0.5000 (   778 PWs)   bands (ev):

   -67.4872 -33.6901 -33.5618 -33.5006  13.9013  16.7183  17.3555  18.2635
    19.2917  20.4093  32.6552  33.1673

          k =-0.1000-0.2000 0.6000 (   778 PWs)   bands (ev):

   -67.4702 -33.7567 -33.6100 -33.5019  14.9643  16.2635  17.1509  18.6505
    19.8177  21.7239  28.8108  31.6859

          k =-0.1000 0.7000-0.3000 (   782 PWs)   bands (ev):

   -67.4637 -33.7831 -33.6288 -33.5012  15.2589  16.2805  16.9573  18.7720
    20.0764  23.2113  26.3959  31.1952

          k =-0.2000 0.8000-0.3000 (   777 PWs)   bands (ev):

   -67.4602 -33.7473 -33.6806 -33.5072  15.7233  15.8992  16.8179  19.1512
    19.7149  24.1220  27.3955  28.4252

          k =-0.3000 0.3000 0.3000 (   784 PWs)   bands (ev):

   -67.4969 -33.7315 -33.4849 -33.4849  14.0099  16.2608  16.2608  19.5329
    19.5329  20.7678  32.3337  32.3337

          k = 0.6000-0.6000 0.3000 (   781 PWs)   bands (ev):

   -67.4843 -33.7490 -33.5548 -33.4915  15.1447  16.0299  16.2558  19.5700
    19.7077  22.3080  28.7357  31.3100

          k = 0.5000-0.5000 0.3000 (   782 PWs)   bands (ev):

   -67.4794 -33.7437 -33.5939 -33.4939  15.3047  15.9550  16.6301  19.6011
    19.7617  23.6654  26.4296  30.9564

          k = 0.5000-0.6000 0.4000 (   779 PWs)   bands (ev):

   -67.4786 -33.7030 -33.6110 -33.5260  15.6962  15.9979  16.1783  19.6885
    19.7499  24.4811  27.4777  28.4971

          k = 0.0000 0.0000 0.5000 (   771 PWs)   bands (ev):

   -67.4882 -33.6300 -33.5560 -33.5560  13.6859  17.0784  17.8186  17.8186
    18.7428  20.3433  35.1084  35.1084

          k = 0.0000-0.1000 0.6000 (   776 PWs)   bands (ev):

   -67.4682 -33.7067 -33.6011 -33.5682  14.7308  16.3185  17.8629  18.2914
    19.4687  21.1846  31.1033  33.1510

          k = 0.0000-0.2000 0.7000 (   776 PWs)   bands (ev):

   -67.4559 -33.7661 -33.6286 -33.5631  15.2776  15.8960  17.7723  18.5045
    20.1466  23.0988  27.3848  31.9688

          k =-0.1000-0.1000 0.7000 (   767 PWs)   bands (ev):

   -67.4529 -33.7348 -33.6564 -33.5830  15.2615  15.7731  17.9264  18.8626
    19.8258  22.9546  29.5434  29.8756

          k =-0.1000 0.8000-0.2000 (   774 PWs)   bands (ev):

   -67.4470 -33.7466 -33.6839 -33.5821  15.4497  15.5473  17.8306  19.1835
    19.9961  25.1844  26.7433  29.1761

          k = 0.5000-0.5000 0.5000 (   784 PWs)   bands (ev):

   -67.4777 -33.6171 -33.6171 -33.6171  15.9885  15.9885  15.9885  19.7779
    19.7779  27.0855  27.0855  27.0855

          k = 0.0000 0.0000 0.7000 (   771 PWs)   bands (ev):

   -67.4501 -33.6953 -33.6473 -33.6473  15.0669  15.7431  18.7429  18.7429
    19.5335  22.4804  30.9909  30.9909

          k = 0.0000-0.1000 0.8000 (   776 PWs)   bands (ev):

   -67.4388 -33.7316 -33.6761 -33.6528  15.1573  15.3110  18.9621  19.1557
    20.0544  24.7580  28.1127  29.6523

          k =-0.1000 0.9000-0.1000 (   784 PWs)   bands (ev):

   -67.4335 -33.7169 -33.7169 -33.6599  15.1038  15.1038  19.0594  19.9123
    19.9123  27.1268  27.1268  27.8237

          k = 0.0000 0.0000 0.9000 (   776 PWs)   bands (ev):

   -67.4283 -33.7122 -33.7055 -33.7055  14.9196  14.9566  19.8785  19.8785
    20.0339  26.6015  28.1587  28.1587

     the Fermi energy is    17.7247 ev

!    total energy              =    -254.36966892 Ry
     estimated scf accuracy    <          4.4E-09 Ry
     smearing contrib. (-TS)   =       0.00088823 Ry
     internal energy E=F+TS    =    -254.37055715 Ry

     The total energy is F=E-TS. E is the sum of the following terms:
     one-electron contribution =    -113.10065600 Ry
     hartree contribution      =      66.20526797 Ry
     xc contribution           =     -34.82065410 Ry
     ewald contribution        =    -172.65451502 Ry

     total magnetization       =     2.26 Bohr mag/cell
     absolute magnetization    =     2.38 Bohr mag/cell

     convergence has been achieved in  10 iterations

     Writing output data file ./tempdir/fe.save/

     init_run     :      0.79s CPU      0.82s WALL (       1 calls)
     electrons    :      9.15s CPU      9.46s WALL (       1 calls)

     Called by init_run:
     wfcinit      :      0.22s CPU      0.22s WALL (       1 calls)
     potinit      :      0.10s CPU      0.11s WALL (       1 calls)
     hinit0       :      0.39s CPU      0.39s WALL (       1 calls)

     Called by electrons:
     c_bands      :      5.57s CPU      5.61s WALL (      10 calls)
     sum_band     :      2.01s CPU      2.11s WALL (      10 calls)
     v_of_rho     :      0.92s CPU      0.96s WALL (      11 calls)
     newd         :      0.67s CPU      0.80s WALL (      11 calls)
     mix_rho      :      0.07s CPU      0.07s WALL (      10 calls)

     Called by c_bands:
     init_us_2    :      0.12s CPU      0.12s WALL (     924 calls)
     cegterg      :      4.84s CPU      4.88s WALL (     440 calls)

     Called by *egterg:
     cdiaghg      :      0.18s CPU      0.18s WALL (    1677 calls)
     h_psi        :      4.43s CPU      4.46s WALL (    1721 calls)
     s_psi        :      0.06s CPU      0.06s WALL (    1721 calls)
     g_psi        :      0.03s CPU      0.03s WALL (    1237 calls)

     Called by h_psi:
     h_psi:calbec :      0.08s CPU      0.08s WALL (    1721 calls)
     vloc_psi     :      4.27s CPU      4.31s WALL (    1721 calls)
     add_vuspsi   :      0.06s CPU      0.06s WALL (    1721 calls)

     General routines
     calbec       :      0.10s CPU      0.10s WALL (    2161 calls)
     fft          :      0.38s CPU      0.39s WALL (     269 calls)
     ffts         :      0.01s CPU      0.01s WALL (      42 calls)
     fftw         :      4.66s CPU      4.69s WALL (   34010 calls)
     interpolate  :      0.04s CPU      0.04s WALL (      22 calls)

     Parallel routines

     PWSCF        :     10.01s CPU     10.35s WALL


   This run was terminated on:   0:10:34  19Apr2021            

=------------------------------------------------------------------------------=
   JOB DONE.
=------------------------------------------------------------------------------=
