
     Program PWSCF v.6.7GPU starts on 19Apr2021 at  0:20:14 

     This program is part of the open-source Quantum ESPRESSO suite
     for quantum simulation of materials; please cite
         "P. Giannozzi et al., J. Phys.:Condens. Matter 21 395502 (2009);
         "P. Giannozzi et al., J. Phys.:Condens. Matter 29 465901 (2017);
         "P. Giannozzi et al., J. Chem. Phys. 152 154105 (2020);
          URL http://www.quantum-espresso.org", 
     in publications or presentations arising from this work. More details at
     http://www.quantum-espresso.org/quote

     Parallel version (MPI & OpenMP), running on       2 processor cores
     Number of MPI processes:                 2
     Threads/MPI process:                     1

     MPI processes distributed on     1 nodes
     K-points division:     npool     =       2
     Reading input from fe.scf.6.0.in

     Current dimensions of program PWSCF are:
     Max number of different atomic species (ntypx) = 10
     Max number of k-points (npk) =  40000
     Max angular momentum in pseudopotentials (lmaxx) =  3

     Subspace diagonalization in iterative solution of the eigenvalue problem:
     a serial algorithm will be used


     G-vector sticks info
     --------------------
     sticks:   dense  smooth     PW     G-vecs:    dense   smooth      PW
     Sum        1729     561    173                45203     8583    1481

     Using Slab Decomposition



     bravais-lattice index     =            3
     lattice parameter (alat)  =       6.0000  a.u.
     unit-cell volume          =     108.0000 (a.u.)^3
     number of atoms/cell      =            1
     number of atomic types    =            1
     number of electrons       =        16.00
     number of Kohn-Sham states=           12
     kinetic-energy cutoff     =      70.0000  Ry
     charge density cutoff     =     850.0000  Ry
     scf convergence threshold =      1.0E-08
     mixing beta               =       0.7000
     number of iterations used =            8  plain     mixing
     Exchange-correlation= PBE
                           (   1   4   3   4   0   0   0)

     celldm(1)=   6.000000  celldm(2)=   0.000000  celldm(3)=   0.000000
     celldm(4)=   0.000000  celldm(5)=   0.000000  celldm(6)=   0.000000

     crystal axes: (cart. coord. in units of alat)
               a(1) = (   0.500000   0.500000   0.500000 )  
               a(2) = (  -0.500000   0.500000   0.500000 )  
               a(3) = (  -0.500000  -0.500000   0.500000 )  

     reciprocal axes: (cart. coord. in units 2 pi/alat)
               b(1) = (  1.000000  0.000000  1.000000 )  
               b(2) = ( -1.000000  1.000000  0.000000 )  
               b(3) = (  0.000000 -1.000000  1.000000 )  


     PseudoPot. # 1 for Fe read from file:
     /home/pietro/repositories/materials-for-max-qe2021-online-school/pseudo/Fe.pbe-spn-rrkjus_psl.0.2.1.UPF
     MD5 check sum: f9af58635850a145d9bd408d58feeb93
     Pseudo is Ultrasoft + core correction, Zval = 16.0
     Generated using "atomic" code by A. Dal Corso  v.5.0.2 svn rev. 9415
     Using radial grid of 1191 points,  6 beta functions with: 
                l(1) =   0
                l(2) =   0
                l(3) =   1
                l(4) =   1
                l(5) =   2
                l(6) =   2
     Q(r) pseudized with 0 coefficients 


     atomic species   valence    mass     pseudopotential
        Fe            16.00    55.84500     Fe( 1.00)

     Starting magnetic structure 
     atomic species   magnetization
        Fe           0.700

     48 Sym. Ops., with inversion, found



   Cartesian axes

     site n.     atom                  positions (alat units)
         1           Fe  tau(   1) = (   0.0000000   0.0000000   0.0000000  )

     number of k points=    44  Marzari-Vanderbilt smearing, width (Ry)=  0.0200
                       cart. coord. in units 2pi/alat
        k(    1) = (   0.0000000   0.0000000   0.1000000), wk =   0.0060000
        k(    2) = (   0.0000000  -0.1000000   0.2000000), wk =   0.0240000
        k(    3) = (   0.0000000  -0.2000000   0.3000000), wk =   0.0240000
        k(    4) = (   0.0000000  -0.3000000   0.4000000), wk =   0.0240000
        k(    5) = (   0.0000000  -0.4000000   0.5000000), wk =   0.0240000
        k(    6) = (  -0.1000000   0.1000000   0.1000000), wk =   0.0080000
        k(    7) = (  -0.1000000  -0.1000000   0.3000000), wk =   0.0240000
        k(    8) = (  -0.1000000  -0.2000000   0.4000000), wk =   0.0480000
        k(    9) = (  -0.1000000  -0.3000000   0.5000000), wk =   0.0480000
        k(   10) = (  -0.1000000   0.6000000  -0.4000000), wk =   0.0240000
        k(   11) = (  -0.2000000   0.2000000   0.1000000), wk =   0.0240000
        k(   12) = (  -0.2000000  -0.2000000   0.5000000), wk =   0.0240000
        k(   13) = (  -0.2000000   0.7000000  -0.4000000), wk =   0.0480000
        k(   14) = (  -0.3000000   0.3000000   0.1000000), wk =   0.0240000
        k(   15) = (  -0.3000000   0.2000000   0.2000000), wk =   0.0240000
        k(   16) = (  -0.3000000   0.7000000  -0.3000000), wk =   0.0080000
        k(   17) = (  -0.4000000   0.4000000   0.1000000), wk =   0.0240000
        k(   18) = (  -0.4000000   0.3000000   0.2000000), wk =   0.0480000
        k(   19) = (   0.5000000  -0.5000000   0.1000000), wk =   0.0120000
        k(   20) = (   0.5000000  -0.6000000   0.2000000), wk =   0.0480000
        k(   21) = (   0.5000000  -0.7000000   0.3000000), wk =   0.0240000
        k(   22) = (   0.4000000  -0.6000000   0.3000000), wk =   0.0240000
        k(   23) = (   0.0000000   0.0000000   0.3000000), wk =   0.0060000
        k(   24) = (   0.0000000  -0.1000000   0.4000000), wk =   0.0240000
        k(   25) = (   0.0000000  -0.2000000   0.5000000), wk =   0.0240000
        k(   26) = (   0.0000000  -0.3000000   0.6000000), wk =   0.0240000
        k(   27) = (  -0.1000000  -0.1000000   0.5000000), wk =   0.0240000
        k(   28) = (  -0.1000000  -0.2000000   0.6000000), wk =   0.0480000
        k(   29) = (  -0.1000000   0.7000000  -0.3000000), wk =   0.0240000
        k(   30) = (  -0.2000000   0.8000000  -0.3000000), wk =   0.0240000
        k(   31) = (  -0.3000000   0.3000000   0.3000000), wk =   0.0080000
        k(   32) = (   0.6000000  -0.6000000   0.3000000), wk =   0.0240000
        k(   33) = (   0.5000000  -0.5000000   0.3000000), wk =   0.0120000
        k(   34) = (   0.5000000  -0.6000000   0.4000000), wk =   0.0240000
        k(   35) = (   0.0000000   0.0000000   0.5000000), wk =   0.0060000
        k(   36) = (   0.0000000  -0.1000000   0.6000000), wk =   0.0240000
        k(   37) = (   0.0000000  -0.2000000   0.7000000), wk =   0.0240000
        k(   38) = (  -0.1000000  -0.1000000   0.7000000), wk =   0.0240000
        k(   39) = (  -0.1000000   0.8000000  -0.2000000), wk =   0.0240000
        k(   40) = (   0.5000000  -0.5000000   0.5000000), wk =   0.0020000
        k(   41) = (   0.0000000   0.0000000   0.7000000), wk =   0.0060000
        k(   42) = (   0.0000000  -0.1000000   0.8000000), wk =   0.0240000
        k(   43) = (  -0.1000000   0.9000000  -0.1000000), wk =   0.0080000
        k(   44) = (   0.0000000   0.0000000   0.9000000), wk =   0.0060000

     Dense  grid:    45203 G-vectors     FFT dimensions: (  50,  50,  50)

     Smooth grid:     8583 G-vectors     FFT dimensions: (  27,  27,  27)

     Estimated max dynamical RAM per process >     122.62 MB

     Estimated total dynamical RAM >     223.16 MB

     Check: negative core charge=   -0.000008
     Generating pointlists ...
     new r_m :   0.3572 (alat units)  2.1434 (a.u.) for type    1

     Initial potential from superposition of free atoms

     starting charge   15.99956, renormalised to   16.00000
     Starting wfcs are   13 randomized atomic wfcs

     total cpu time spent up to now is        1.0 secs

     Self-consistent Calculation

     iteration #  1     ecut=    70.00 Ry     beta= 0.70
     Davidson diagonalization with overlap
     ethr =  1.00E-02,  avg # of iterations =  2.8

     negative rho (up, down):  0.000E+00 7.827E-05

     total cpu time spent up to now is        2.2 secs

     total energy              =    -254.02617401 Ry
     estimated scf accuracy    <       1.36324823 Ry

     total magnetization       =     4.36 Bohr mag/cell
     absolute magnetization    =     4.36 Bohr mag/cell

     iteration #  2     ecut=    70.00 Ry     beta= 0.70
     Davidson diagonalization with overlap
     ethr =  8.52E-03,  avg # of iterations =  1.4

     negative rho (up, down):  0.000E+00 7.815E-05

     total cpu time spent up to now is        3.3 secs

     total energy              =    -254.15702232 Ry
     estimated scf accuracy    <       0.51869490 Ry

     total magnetization       =     3.22 Bohr mag/cell
     absolute magnetization    =     3.36 Bohr mag/cell

     iteration #  3     ecut=    70.00 Ry     beta= 0.70
     Davidson diagonalization with overlap
     ethr =  3.24E-03,  avg # of iterations =  2.0

     negative rho (up, down):  0.000E+00 9.174E-05

     total cpu time spent up to now is        4.4 secs

     total energy              =    -254.24105432 Ry
     estimated scf accuracy    <       0.56616238 Ry

     total magnetization       =     3.24 Bohr mag/cell
     absolute magnetization    =     3.40 Bohr mag/cell

     iteration #  4     ecut=    70.00 Ry     beta= 0.70
     Davidson diagonalization with overlap
     ethr =  3.24E-03,  avg # of iterations =  1.9

     negative rho (up, down):  0.000E+00 7.774E-05

     total cpu time spent up to now is        5.4 secs

     total energy              =    -254.33061031 Ry
     estimated scf accuracy    <       0.00106513 Ry

     total magnetization       =     2.78 Bohr mag/cell
     absolute magnetization    =     3.02 Bohr mag/cell

     iteration #  5     ecut=    70.00 Ry     beta= 0.70
     Davidson diagonalization with overlap
     ethr =  6.66E-06,  avg # of iterations =  6.0

     negative rho (up, down):  0.000E+00 7.653E-05

     total cpu time spent up to now is        7.1 secs

     total energy              =    -254.33228986 Ry
     estimated scf accuracy    <       0.00100955 Ry

     total magnetization       =     2.79 Bohr mag/cell
     absolute magnetization    =     3.04 Bohr mag/cell

     iteration #  6     ecut=    70.00 Ry     beta= 0.70
     Davidson diagonalization with overlap
     ethr =  6.31E-06,  avg # of iterations =  1.5

     negative rho (up, down):  0.000E+00 7.307E-05

     total cpu time spent up to now is        8.1 secs

     total energy              =    -254.33236149 Ry
     estimated scf accuracy    <       0.00012290 Ry

     total magnetization       =     2.79 Bohr mag/cell
     absolute magnetization    =     3.03 Bohr mag/cell

     iteration #  7     ecut=    70.00 Ry     beta= 0.70
     Davidson diagonalization with overlap
     ethr =  7.68E-07,  avg # of iterations =  2.2

     negative rho (up, down):  0.000E+00 7.310E-05

     total cpu time spent up to now is        9.3 secs

     total energy              =    -254.33237746 Ry
     estimated scf accuracy    <       0.00002827 Ry

     total magnetization       =     2.78 Bohr mag/cell
     absolute magnetization    =     3.02 Bohr mag/cell

     iteration #  8     ecut=    70.00 Ry     beta= 0.70
     Davidson diagonalization with overlap
     ethr =  1.77E-07,  avg # of iterations =  2.1

     negative rho (up, down):  0.000E+00 7.350E-05

     total cpu time spent up to now is       10.4 secs

     total energy              =    -254.33238302 Ry
     estimated scf accuracy    <       0.00000057 Ry

     total magnetization       =     2.78 Bohr mag/cell
     absolute magnetization    =     3.03 Bohr mag/cell

     iteration #  9     ecut=    70.00 Ry     beta= 0.70
     Davidson diagonalization with overlap
     ethr =  3.54E-09,  avg # of iterations =  4.3

     negative rho (up, down):  0.000E+00 7.345E-05

     total cpu time spent up to now is       11.7 secs

     total energy              =    -254.33238358 Ry
     estimated scf accuracy    <       0.00000042 Ry

     total magnetization       =     2.78 Bohr mag/cell
     absolute magnetization    =     3.02 Bohr mag/cell

     iteration # 10     ecut=    70.00 Ry     beta= 0.70
     Davidson diagonalization with overlap
     ethr =  2.61E-09,  avg # of iterations =  2.1

     negative rho (up, down):  0.000E+00 7.344E-05

     total cpu time spent up to now is       12.8 secs

     total energy              =    -254.33238368 Ry
     estimated scf accuracy    <       0.00000002 Ry

     total magnetization       =     2.78 Bohr mag/cell
     absolute magnetization    =     3.02 Bohr mag/cell

     iteration # 11     ecut=    70.00 Ry     beta= 0.70
     Davidson diagonalization with overlap
     ethr =  1.14E-10,  avg # of iterations =  4.0

     negative rho (up, down):  0.000E+00 7.344E-05

     Magnetic moment per site  (integrated on atomic sphere of radius R)
     atom   1 (R=0.357)  charge= 14.6451  magn=  2.8954

     total cpu time spent up to now is       14.1 secs

     End of self-consistent calculation

 ------ SPIN UP ------------


          k = 0.0000 0.0000 0.1000 (  1056 PWs)   bands (ev):

   -76.4368 -42.4065 -42.4049 -42.4049   5.2514   9.6875   9.6875   9.7203
    10.3707  10.4389  32.1717  32.8280

          k = 0.0000-0.1000 0.2000 (  1051 PWs)   bands (ev):

   -76.4338 -42.4270 -42.4124 -42.4050   5.8724   9.5848   9.6794   9.9657
    10.2619  10.4713  28.4446  31.0744

          k = 0.0000-0.2000 0.3000 (  1059 PWs)   bands (ev):

   -76.4290 -42.4617 -42.4246 -42.4050   6.9704   9.4059   9.6571  10.2594
    10.4071  10.5117  24.0997  29.2049

          k = 0.0000-0.3000 0.4000 (  1064 PWs)   bands (ev):

   -76.4242 -42.4960 -42.4374 -42.4043   7.9300   9.2313  10.0047  10.4081
    10.7516  10.8909  20.1309  27.6445

          k = 0.0000-0.4000 0.5000 (  1067 PWs)   bands (ev):

   -76.4212 -42.5171 -42.4452 -42.4040   8.1528   9.1255  10.3064  10.4262
    11.2162  12.1868  16.9933  26.7500

          k =-0.1000 0.1000 0.1000 (  1049 PWs)   bands (ev):

   -76.4353 -42.4207 -42.4048 -42.4048   5.5659   9.6175   9.6175   9.9182
    10.3892  10.3892  30.4423  30.4423

          k =-0.1000-0.1000 0.3000 (  1062 PWs)   bands (ev):

   -76.4300 -42.4509 -42.4210 -42.4104   6.7317   9.5531   9.5649  10.1560
    10.3032  10.5532  26.3588  26.7733

          k =-0.1000-0.2000 0.4000 (  1064 PWs)   bands (ev):

   -76.4252 -42.4813 -42.4349 -42.4115   7.8239   9.3591   9.5677  10.2303
    10.5954  10.9958  22.3544  25.0516

          k =-0.1000-0.3000 0.5000 (  1066 PWs)   bands (ev):

   -76.4213 -42.5056 -42.4473 -42.4114   8.3291   9.2374   9.8254  10.3613
    10.8584  12.1995  18.6697  24.0400

          k =-0.1000 0.6000-0.4000 (  1067 PWs)   bands (ev):

   -76.4198 -42.5149 -42.4522 -42.4113   8.3643   9.1971   9.9644  10.3709
    11.0490  13.5835  16.4871  23.6781

          k =-0.2000 0.2000 0.1000 (  1060 PWs)   bands (ev):

   -76.4314 -42.4492 -42.4151 -42.4049   6.4543   9.4496   9.5490  10.3201
    10.3333  10.4277  26.2867  28.6131

          k =-0.2000-0.2000 0.5000 (  1069 PWs)   bands (ev):

   -76.4214 -42.4967 -42.4513 -42.4160   8.5464   9.1831   9.5731  10.3030
    10.6931  12.2755  21.0363  21.1610

          k =-0.2000 0.7000-0.4000 (  1068 PWs)   bands (ev):

   -76.4190 -42.5030 -42.4657 -42.4173   8.7291   9.1932   9.5482  10.4287
    10.8013  14.2942  17.7284  20.4216

          k =-0.3000 0.3000 0.1000 (  1064 PWs)   bands (ev):

   -76.4265 -42.4821 -42.4295 -42.4047   7.6090   9.2607   9.6436  10.3620
    10.4670  10.9096  22.1043  27.6179

          k =-0.3000 0.2000 0.2000 (  1068 PWs)   bands (ev):

   -76.4274 -42.4757 -42.4225 -42.4103   7.4820   9.3378   9.3461  10.3397
    10.4728  10.9503  24.4460  24.7030

          k =-0.3000 0.7000-0.3000 (  1066 PWs)   bands (ev):

   -76.4181 -42.4876 -42.4876 -42.4187   8.9940   9.2358   9.2358  10.6348
    10.6348  16.7766  16.7766  18.0460

          k =-0.4000 0.4000 0.1000 (  1066 PWs)   bands (ev):

   -76.4225 -42.5077 -42.4417 -42.4048   8.1613   9.1172  10.3530  10.4980
    10.4997  11.8377  18.4503  26.4161

          k =-0.4000 0.3000 0.2000 (  1070 PWs)   bands (ev):

   -76.4234 -42.4963 -42.4384 -42.4125   8.3649   9.1678   9.5365  10.3940
    10.5286  11.9567  20.6045  23.3297

          k = 0.5000-0.5000 0.1000 (  1078 PWs)   bands (ev):

   -76.4210 -42.5179 -42.4466 -42.4051   8.2112   9.0640  10.4469  10.5102
    10.8519  12.9806  16.3895  25.9825

          k = 0.5000-0.6000 0.2000 (  1065 PWs)   bands (ev):

   -76.4208 -42.5069 -42.4507 -42.4129   8.4960   9.0850  10.0298  10.4558
    10.6039  13.5967  17.3443  22.6610

          k = 0.5000-0.7000 0.3000 (  1074 PWs)   bands (ev):

   -76.4208 -42.4981 -42.4558 -42.4181   8.7695   9.1501   9.5329  10.4531
    10.5823  13.7149  19.5389  19.7458

          k = 0.4000-0.6000 0.3000 (  1074 PWs)   bands (ev):

   -76.4199 -42.4934 -42.4684 -42.4196   8.8078   9.1748   9.5845  10.5054
    10.5921  15.6816  17.0105  19.3250

          k = 0.0000 0.0000 0.3000 (  1060 PWs)   bands (ev):

   -76.4310 -42.4314 -42.4204 -42.4204   6.4630   9.7381   9.7381   9.9763
     9.9995  10.5887  28.7903  28.7904

          k = 0.0000-0.1000 0.4000 (  1056 PWs)   bands (ev):

   -76.4263 -42.4600 -42.4328 -42.4226   7.4738   9.5932   9.6549  10.0142
    10.3580  10.7702  24.5937  26.8658

          k = 0.0000-0.2000 0.5000 (  1065 PWs)   bands (ev):

   -76.4217 -42.4922 -42.4458 -42.4214   8.2939   9.4685   9.5127  10.2346
    10.8490  11.5182  20.6099  25.3943

          k = 0.0000-0.3000 0.6000 (  1071 PWs)   bands (ev):

   -76.4188 -42.5121 -42.4536 -42.4208   8.4409   9.4230   9.6006  10.2650
    11.1860  13.3029  17.3198  24.5697

          k =-0.1000-0.1000 0.5000 (  1065 PWs)   bands (ev):

   -76.4218 -42.4809 -42.4475 -42.4292   8.3093   9.2938   9.7474  10.0991
    10.6522  11.4515  23.0055  23.1272

          k =-0.1000-0.2000 0.6000 (  1075 PWs)   bands (ev):

   -76.4182 -42.5006 -42.4613 -42.4298   8.6775   9.1676   9.6352  10.2938
    10.9414  13.1232  19.3440  22.0381

          k =-0.1000 0.7000-0.3000 (  1075 PWs)   bands (ev):

   -76.4168 -42.5081 -42.4667 -42.4298   8.6662   9.2789   9.5182  10.3440
    11.0964  14.9752  16.8419  21.6653

          k =-0.2000 0.8000-0.3000 (  1074 PWs)   bands (ev):

   -76.4160 -42.4985 -42.4808 -42.4319   8.9540   8.9748   9.4728  10.5900
    10.8918  15.4658  18.3932  18.8775

          k =-0.3000 0.3000 0.3000 (  1067 PWs)   bands (ev):

   -76.4241 -42.4925 -42.4239 -42.4239   8.4738   9.1691   9.1691  10.4550
    10.4550  11.9361  23.0398  23.2059

          k = 0.6000-0.6000 0.3000 (  1074 PWs)   bands (ev):

   -76.4215 -42.4973 -42.4439 -42.4253   8.8430   9.0738   9.4884  10.4844
    10.5073  13.5237  19.3943  22.1499

          k = 0.5000-0.5000 0.3000 (  1076 PWs)   bands (ev):

   -76.4205 -42.4957 -42.4550 -42.4257   8.7965   9.0443   9.7856  10.5040
    10.5205  15.2869  16.9099  21.8007

          k = 0.5000-0.6000 0.4000 (  1083 PWs)   bands (ev):

   -76.4204 -42.4844 -42.4594 -42.4352   8.9757   9.1824   9.4271  10.5164
    10.5282  15.7436  18.6007  18.9152

          k = 0.0000 0.0000 0.5000 (  1052 PWs)   bands (ev):

   -76.4219 -42.4624 -42.4459 -42.4459   8.2025   9.3776   9.9801   9.9801
    10.3938  11.2701  24.8482  24.8482

          k = 0.0000-0.1000 0.6000 (  1069 PWs)   bands (ev):

   -76.4176 -42.4863 -42.4592 -42.4491   8.6352   9.0569  10.0044  10.2028
    10.7900  12.5344  21.4820  23.3129

          k = 0.0000-0.2000 0.7000 (  1071 PWs)   bands (ev):

   -76.4149 -42.5039 -42.4673 -42.4474   8.6582   8.9743   9.9565  10.2966
    11.1373  14.7147  18.0772  22.4520

          k =-0.1000-0.1000 0.7000 (  1077 PWs)   bands (ev):

   -76.4142 -42.4957 -42.4750 -42.4540   8.7222   8.7911  10.0508  10.5197
    10.9759  14.4731  20.3258  20.4592

          k =-0.1000 0.8000-0.2000 (  1071 PWs)   bands (ev):

   -76.4129 -42.4992 -42.4826 -42.4537   8.6654   8.7586  10.0195  10.6761
    11.0691  16.7456  17.6092  19.9983

          k = 0.5000-0.5000 0.5000 (  1088 PWs)   bands (ev):

   -76.4203 -42.4606 -42.4606 -42.4606   9.2084   9.2084   9.2084  10.5269
    10.5269  18.2811  18.2811  18.2811

          k = 0.0000 0.0000 0.7000 (  1064 PWs)   bands (ev):

   -76.4135 -42.4836 -42.4726 -42.4726   8.6155   8.7400  10.4876  10.4876
    10.8146  14.1047  21.6939  21.6939

          k = 0.0000-0.1000 0.8000 (  1076 PWs)   bands (ev):

   -76.4111 -42.4959 -42.4812 -42.4740   8.5193   8.5521  10.5803  10.6952
    11.0895  16.3657  19.2288  20.7687

          k =-0.1000 0.9000-0.1000 (  1078 PWs)   bands (ev):

   -76.4099 -42.4922 -42.4922 -42.4769   8.4460   8.4460  10.6408  11.0338
    11.0338  18.6444  18.6444  19.0077

          k = 0.0000 0.0000 0.9000 (  1064 PWs)   bands (ev):

   -76.4087 -42.4915 -42.4891 -42.4891   8.3420   8.3427  11.0191  11.0191
    11.0758  18.3015  19.7907  19.7907

 ------ SPIN DOWN ----------


          k = 0.0000 0.0000 0.1000 (  1056 PWs)   bands (ev):

   -72.9277 -38.9493 -38.9473 -38.9473   5.3286  12.2817  12.2817  12.3299
    13.5581  13.6605  31.8393  32.6248

          k = 0.0000-0.1000 0.2000 (  1051 PWs)   bands (ev):

   -72.9242 -38.9737 -38.9560 -38.9475   5.9577  12.1365  12.2323  12.6187
    13.3831  13.7033  28.7465  31.0209

          k = 0.0000-0.2000 0.3000 (  1059 PWs)   bands (ev):

   -72.9186 -39.0147 -38.9703 -38.9475   7.1358  11.8883  12.0443  13.1495
    13.3076  13.7449  24.7307  29.2200

          k = 0.0000-0.3000 0.4000 (  1064 PWs)   bands (ev):

   -72.9131 -39.0553 -38.9851 -38.9469   8.6081  11.6492  11.8724  13.3936
    13.7478  13.8024  21.0670  28.3108

          k = 0.0000-0.4000 0.5000 (  1067 PWs)   bands (ev):

   -72.9096 -39.0802 -38.9942 -38.9466   9.6614  11.5057  12.0951  13.4657
    13.9425  14.1627  18.4419  27.3592

          k =-0.1000 0.1000 0.1000 (  1049 PWs)   bands (ev):

   -72.9259 -38.9661 -38.9472 -38.9472   5.6458  12.1844  12.1844  12.5573
    13.5832  13.5832  30.4911  30.4911

          k =-0.1000-0.1000 0.3000 (  1062 PWs)   bands (ev):

   -72.9198 -39.0019 -38.9660 -38.9538   6.8567  12.0453  12.0743  12.9994
    13.1852  13.7867  26.7735  27.3456

          k =-0.1000-0.2000 0.4000 (  1064 PWs)   bands (ev):

   -72.9142 -39.0378 -38.9824 -38.9551   8.1975  11.7756  11.8757  13.1942
    13.5772  13.8869  23.0908  25.6044

          k =-0.1000-0.3000 0.5000 (  1066 PWs)   bands (ev):

   -72.9098 -39.0666 -38.9969 -38.9552   9.5439  11.5834  11.7512  13.3375
    13.8451  14.4227  19.7484  24.5908

          k =-0.1000 0.6000-0.4000 (  1067 PWs)   bands (ev):

   -72.9080 -39.0775 -39.0026 -38.9550  10.0742  11.5594  11.8002  13.3810
    13.9657  14.9789  18.0463  24.2176

          k =-0.2000 0.2000 0.1000 (  1060 PWs)   bands (ev):

   -72.9214 -38.9999 -38.9592 -38.9473   6.5620  11.9487  12.0350  13.0161
    13.4648  13.6407  26.7511  28.7992

          k =-0.2000-0.2000 0.5000 (  1069 PWs)   bands (ev):

   -72.9098 -39.0559 -39.0017 -38.9604   9.4999  11.4615  11.7843  13.2536
    13.7646  14.5784  21.8365  21.9131

          k =-0.2000 0.7000-0.4000 (  1068 PWs)   bands (ev):

   -72.9071 -39.0633 -39.0188 -38.9619  10.4687  11.3451  11.6040  13.4014
    13.7913  15.8370  18.8719  21.1845

          k =-0.3000 0.3000 0.1000 (  1064 PWs)   bands (ev):

   -72.9157 -39.0388 -38.9760 -38.9473   7.9353  11.6836  11.8223  13.4569
    13.6307  13.7076  22.8588  27.3701

          k =-0.3000 0.2000 0.2000 (  1068 PWs)   bands (ev):

   -72.9167 -39.0311 -38.9679 -38.9537   7.6941  11.7334  11.7391  13.4618
    13.6225  13.7074  24.9606  25.3247

          k =-0.3000 0.7000-0.3000 (  1066 PWs)   bands (ev):

   -72.9061 -39.0449 -39.0449 -38.9636  11.1244  11.2336  11.2336  13.6148
    13.6148  17.8847  17.8847  19.1163

          k =-0.4000 0.4000 0.1000 (  1066 PWs)   bands (ev):

   -72.9111 -39.0691 -38.9903 -38.9475   9.3159  11.4837  11.8438  13.5181
    13.7654  14.2435  19.5805  26.4128

          k =-0.4000 0.3000 0.2000 (  1070 PWs)   bands (ev):

   -72.9121 -39.0555 -38.9866 -38.9564   9.1083  11.4730  11.5715  13.5041
    13.7606  14.4017  21.4346  23.9243

          k = 0.5000-0.5000 0.1000 (  1078 PWs)   bands (ev):

   -72.9094 -39.0811 -38.9959 -38.9477   9.8485  11.4102  12.1356  13.5428
    13.7893  14.5913  18.0135  26.0748

          k = 0.5000-0.6000 0.2000 (  1065 PWs)   bands (ev):

   -72.9092 -39.0681 -39.0011 -38.9569  10.1010  11.3637  11.6495  13.5700
    13.7969  15.2810  18.6166  23.2461

          k = 0.5000-0.7000 0.3000 (  1074 PWs)   bands (ev):

   -72.9092 -39.0576 -39.0072 -38.9630  10.2703  11.2544  11.4525  13.5756
    13.7787  15.5519  20.4110  20.5681

          k = 0.4000-0.6000 0.3000 (  1074 PWs)   bands (ev):

   -72.9081 -39.0520 -39.0222 -38.9647  10.7356  11.2632  11.3680  13.6421
    13.7580  16.8818  18.2674  20.1610

          k = 0.0000 0.0000 0.3000 (  1060 PWs)   bands (ev):

   -72.9209 -38.9791 -38.9654 -38.9654   6.5663  12.2856  12.2856  12.6407
    12.9984  13.8329  28.7038  29.3789

          k = 0.0000-0.1000 0.4000 (  1056 PWs)   bands (ev):

   -72.9155 -39.0127 -38.9799 -38.9681   7.6963  12.1366  12.1646  12.8224
    13.0903  13.9203  25.2127  27.5241

          k = 0.0000-0.2000 0.5000 (  1065 PWs)   bands (ev):

   -72.9102 -39.0506 -38.9950 -38.9669   9.0863  11.7467  11.9715  13.0427
    13.6939  14.1165  21.4828  26.0383

          k = 0.0000-0.3000 0.6000 (  1071 PWs)   bands (ev):

   -72.9069 -39.0741 -39.0041 -38.9661  10.0911  11.5786  11.8499  13.1478
    14.1248  14.8334  18.6221  25.1675

          k =-0.1000-0.1000 0.5000 (  1065 PWs)   bands (ev):

   -72.9103 -39.0372 -38.9971 -38.9758   8.9106  11.7908  12.1983  12.8319
    13.5033  14.1334  23.7048  23.8099

          k =-0.1000-0.2000 0.6000 (  1075 PWs)   bands (ev):

   -72.9061 -39.0603 -39.0133 -38.9765  10.0926  11.4108  12.0548  13.0777
    13.8360  14.9748  20.2821  22.7235

          k =-0.1000 0.7000-0.3000 (  1075 PWs)   bands (ev):

   -72.9045 -39.0690 -39.0196 -38.9764  10.6081  11.2835  11.9292  13.1487
    14.0104  16.1230  18.1926  22.3321

          k =-0.2000 0.8000-0.3000 (  1074 PWs)   bands (ev):

   -72.9036 -39.0576 -39.0364 -38.9788  10.8866  11.1525  11.7950  13.4055
    13.7687  16.7344  19.3489  19.7715

          k =-0.3000 0.3000 0.3000 (  1067 PWs)   bands (ev):

   -72.9130 -39.0509 -38.9697 -38.9697   8.9413  11.4542  11.4542  13.6624
    13.6624  14.4250  23.6069  23.6069

          k = 0.6000-0.6000 0.3000 (  1074 PWs)   bands (ev):

   -72.9100 -39.0566 -38.9933 -38.9715  10.1765  11.2825  11.3156  13.6834
    13.7718  15.4494  20.2764  22.8309

          k = 0.5000-0.5000 0.3000 (  1076 PWs)   bands (ev):

   -72.9088 -39.0548 -39.0064 -38.9721  10.5953  11.2256  11.4402  13.7014
    13.8054  16.5173  18.2347  22.4678

          k = 0.5000-0.6000 0.4000 (  1083 PWs)   bands (ev):

   -72.9086 -39.0414 -39.0117 -38.9832  10.9008  11.1629  11.2301  13.7592
    13.7976  17.0568  19.5138  19.7861

          k = 0.0000 0.0000 0.5000 (  1052 PWs)   bands (ev):

   -72.9105 -39.0159 -38.9952 -38.9952   8.6954  12.0758  12.5117  12.5117
    13.1509  14.0878  25.5108  25.5108

          k = 0.0000-0.1000 0.6000 (  1069 PWs)   bands (ev):

   -72.9055 -39.0434 -39.0107 -38.9990   9.8143  11.5347  12.5438  12.8265
    13.6227  14.5644  22.2296  23.9297

          k = 0.0000-0.2000 0.7000 (  1071 PWs)   bands (ev):

   -72.9025 -39.0640 -39.0202 -38.9971  10.5916  11.1381  12.4854  12.9514
    14.0639  15.9583  19.0942  23.0041

          k =-0.1000-0.1000 0.7000 (  1077 PWs)   bands (ev):

   -72.9017 -39.0541 -39.0294 -39.0047  10.5212  11.1466  12.5685  13.2069
    13.8472  15.8026  21.0704  21.1455

          k =-0.1000 0.8000-0.2000 (  1071 PWs)   bands (ev):

   -72.9002 -39.0582 -39.0384 -39.0043  10.8702  10.8960  12.4881  13.4154
    13.9611  17.6291  18.5966  20.6722

          k = 0.5000-0.5000 0.5000 (  1088 PWs)   bands (ev):

   -72.9084 -39.0132 -39.0132 -39.0132  11.1414  11.1414  11.1414  13.8154
    13.8154  19.2077  19.2077  19.6951

          k = 0.0000 0.0000 0.7000 (  1064 PWs)   bands (ev):

   -72.9009 -39.0401 -39.0264 -39.0264  10.3699  11.1588  13.1222  13.1222
    13.6688  15.4239  22.2304  22.2304

          k = 0.0000-0.1000 0.8000 (  1076 PWs)   bands (ev):

   -72.8980 -39.0540 -39.0365 -39.0281  10.6356  10.8351  13.2752  13.3878
    14.0046  17.2090  19.8642  21.2042

          k =-0.1000 0.9000-0.1000 (  1078 PWs)   bands (ev):

   -72.8967 -39.0496 -39.0496 -39.0313  10.6743  10.6743  13.3295  13.9072
    13.9072  19.2013  19.2013  19.5607

          k = 0.0000 0.0000 0.9000 (  1064 PWs)   bands (ev):

   -72.8953 -39.0486 -39.0459 -39.0459  10.5528  10.6038  13.8853  13.8853
    13.9920  18.7565  20.0752  20.0752

     the Fermi energy is    12.0612 ev

!    total energy              =    -254.33238369 Ry
     estimated scf accuracy    <          2.4E-09 Ry
     smearing contrib. (-TS)   =       0.00059146 Ry
     internal energy E=F+TS    =    -254.33297515 Ry

     The total energy is F=E-TS. E is the sum of the following terms:
     one-electron contribution =    -141.26860332 Ry
     hartree contribution      =      76.91854620 Ry
     xc contribution           =     -34.70895752 Ry
     ewald contribution        =    -155.27396051 Ry

     total magnetization       =     2.78 Bohr mag/cell
     absolute magnetization    =     3.02 Bohr mag/cell

     convergence has been achieved in  11 iterations

     Writing output data file ./tempdir/fe.save/

     init_run     :      0.91s CPU      0.96s WALL (       1 calls)
     electrons    :     12.57s CPU     13.06s WALL (       1 calls)

     Called by init_run:
     wfcinit      :      0.28s CPU      0.29s WALL (       1 calls)
     potinit      :      0.13s CPU      0.14s WALL (       1 calls)
     hinit0       :      0.39s CPU      0.40s WALL (       1 calls)

     Called by electrons:
     c_bands      :      7.27s CPU      7.32s WALL (      11 calls)
     sum_band     :      2.90s CPU      3.08s WALL (      11 calls)
     v_of_rho     :      1.39s CPU      1.48s WALL (      12 calls)
     newd         :      0.99s CPU      1.18s WALL (      12 calls)
     mix_rho      :      0.11s CPU      0.11s WALL (      11 calls)

     Called by c_bands:
     init_us_2    :      0.18s CPU      0.18s WALL (    1012 calls)
     cegterg      :      6.40s CPU      6.45s WALL (     484 calls)

     Called by *egterg:
     cdiaghg      :      0.19s CPU      0.19s WALL (    1794 calls)
     h_psi        :      5.85s CPU      5.89s WALL (    1838 calls)
     s_psi        :      0.08s CPU      0.08s WALL (    1838 calls)
     g_psi        :      0.04s CPU      0.04s WALL (    1310 calls)

     Called by h_psi:
     h_psi:calbec :      0.10s CPU      0.10s WALL (    1838 calls)
     vloc_psi     :      5.63s CPU      5.67s WALL (    1838 calls)
     add_vuspsi   :      0.09s CPU      0.09s WALL (    1838 calls)

     General routines
     calbec       :      0.14s CPU      0.14s WALL (    2322 calls)
     fft          :      0.62s CPU      0.63s WALL (     294 calls)
     ffts         :      0.01s CPU      0.01s WALL (      46 calls)
     fftw         :      6.16s CPU      6.20s WALL (   36260 calls)
     interpolate  :      0.07s CPU      0.07s WALL (      24 calls)

     Parallel routines

     PWSCF        :     13.56s CPU     14.11s WALL


   This run was terminated on:   0:20:28  19Apr2021            

=------------------------------------------------------------------------------=
   JOB DONE.
=------------------------------------------------------------------------------=
