
     Program PWSCF v.6.7GPU starts on 19Apr2021 at  0:19:42 

     This program is part of the open-source Quantum ESPRESSO suite
     for quantum simulation of materials; please cite
         "P. Giannozzi et al., J. Phys.:Condens. Matter 21 395502 (2009);
         "P. Giannozzi et al., J. Phys.:Condens. Matter 29 465901 (2017);
         "P. Giannozzi et al., J. Chem. Phys. 152 154105 (2020);
          URL http://www.quantum-espresso.org", 
     in publications or presentations arising from this work. More details at
     http://www.quantum-espresso.org/quote

     Parallel version (MPI & OpenMP), running on       2 processor cores
     Number of MPI processes:                 2
     Threads/MPI process:                     1

     MPI processes distributed on     1 nodes
     K-points division:     npool     =       2
     Reading input from fe.scf.5.8.in

     Current dimensions of program PWSCF are:
     Max number of different atomic species (ntypx) = 10
     Max number of k-points (npk) =  40000
     Max angular momentum in pseudopotentials (lmaxx) =  3

     Subspace diagonalization in iterative solution of the eigenvalue problem:
     a serial algorithm will be used


     G-vector sticks info
     --------------------
     sticks:   dense  smooth     PW     G-vecs:    dense   smooth      PW
     Sum        1605     535    169                40827     7803    1409

     Using Slab Decomposition



     bravais-lattice index     =            3
     lattice parameter (alat)  =       5.8000  a.u.
     unit-cell volume          =      97.5560 (a.u.)^3
     number of atoms/cell      =            1
     number of atomic types    =            1
     number of electrons       =        16.00
     number of Kohn-Sham states=           12
     kinetic-energy cutoff     =      70.0000  Ry
     charge density cutoff     =     850.0000  Ry
     scf convergence threshold =      1.0E-08
     mixing beta               =       0.7000
     number of iterations used =            8  plain     mixing
     Exchange-correlation= PBE
                           (   1   4   3   4   0   0   0)

     celldm(1)=   5.800000  celldm(2)=   0.000000  celldm(3)=   0.000000
     celldm(4)=   0.000000  celldm(5)=   0.000000  celldm(6)=   0.000000

     crystal axes: (cart. coord. in units of alat)
               a(1) = (   0.500000   0.500000   0.500000 )  
               a(2) = (  -0.500000   0.500000   0.500000 )  
               a(3) = (  -0.500000  -0.500000   0.500000 )  

     reciprocal axes: (cart. coord. in units 2 pi/alat)
               b(1) = (  1.000000  0.000000  1.000000 )  
               b(2) = ( -1.000000  1.000000  0.000000 )  
               b(3) = (  0.000000 -1.000000  1.000000 )  


     PseudoPot. # 1 for Fe read from file:
     /home/pietro/repositories/materials-for-max-qe2021-online-school/pseudo/Fe.pbe-spn-rrkjus_psl.0.2.1.UPF
     MD5 check sum: f9af58635850a145d9bd408d58feeb93
     Pseudo is Ultrasoft + core correction, Zval = 16.0
     Generated using "atomic" code by A. Dal Corso  v.5.0.2 svn rev. 9415
     Using radial grid of 1191 points,  6 beta functions with: 
                l(1) =   0
                l(2) =   0
                l(3) =   1
                l(4) =   1
                l(5) =   2
                l(6) =   2
     Q(r) pseudized with 0 coefficients 


     atomic species   valence    mass     pseudopotential
        Fe            16.00    55.84500     Fe( 1.00)

     Starting magnetic structure 
     atomic species   magnetization
        Fe           0.700

     48 Sym. Ops., with inversion, found



   Cartesian axes

     site n.     atom                  positions (alat units)
         1           Fe  tau(   1) = (   0.0000000   0.0000000   0.0000000  )

     number of k points=    44  Marzari-Vanderbilt smearing, width (Ry)=  0.0200
                       cart. coord. in units 2pi/alat
        k(    1) = (   0.0000000   0.0000000   0.1000000), wk =   0.0060000
        k(    2) = (   0.0000000  -0.1000000   0.2000000), wk =   0.0240000
        k(    3) = (   0.0000000  -0.2000000   0.3000000), wk =   0.0240000
        k(    4) = (   0.0000000  -0.3000000   0.4000000), wk =   0.0240000
        k(    5) = (   0.0000000  -0.4000000   0.5000000), wk =   0.0240000
        k(    6) = (  -0.1000000   0.1000000   0.1000000), wk =   0.0080000
        k(    7) = (  -0.1000000  -0.1000000   0.3000000), wk =   0.0240000
        k(    8) = (  -0.1000000  -0.2000000   0.4000000), wk =   0.0480000
        k(    9) = (  -0.1000000  -0.3000000   0.5000000), wk =   0.0480000
        k(   10) = (  -0.1000000   0.6000000  -0.4000000), wk =   0.0240000
        k(   11) = (  -0.2000000   0.2000000   0.1000000), wk =   0.0240000
        k(   12) = (  -0.2000000  -0.2000000   0.5000000), wk =   0.0240000
        k(   13) = (  -0.2000000   0.7000000  -0.4000000), wk =   0.0480000
        k(   14) = (  -0.3000000   0.3000000   0.1000000), wk =   0.0240000
        k(   15) = (  -0.3000000   0.2000000   0.2000000), wk =   0.0240000
        k(   16) = (  -0.3000000   0.7000000  -0.3000000), wk =   0.0080000
        k(   17) = (  -0.4000000   0.4000000   0.1000000), wk =   0.0240000
        k(   18) = (  -0.4000000   0.3000000   0.2000000), wk =   0.0480000
        k(   19) = (   0.5000000  -0.5000000   0.1000000), wk =   0.0120000
        k(   20) = (   0.5000000  -0.6000000   0.2000000), wk =   0.0480000
        k(   21) = (   0.5000000  -0.7000000   0.3000000), wk =   0.0240000
        k(   22) = (   0.4000000  -0.6000000   0.3000000), wk =   0.0240000
        k(   23) = (   0.0000000   0.0000000   0.3000000), wk =   0.0060000
        k(   24) = (   0.0000000  -0.1000000   0.4000000), wk =   0.0240000
        k(   25) = (   0.0000000  -0.2000000   0.5000000), wk =   0.0240000
        k(   26) = (   0.0000000  -0.3000000   0.6000000), wk =   0.0240000
        k(   27) = (  -0.1000000  -0.1000000   0.5000000), wk =   0.0240000
        k(   28) = (  -0.1000000  -0.2000000   0.6000000), wk =   0.0480000
        k(   29) = (  -0.1000000   0.7000000  -0.3000000), wk =   0.0240000
        k(   30) = (  -0.2000000   0.8000000  -0.3000000), wk =   0.0240000
        k(   31) = (  -0.3000000   0.3000000   0.3000000), wk =   0.0080000
        k(   32) = (   0.6000000  -0.6000000   0.3000000), wk =   0.0240000
        k(   33) = (   0.5000000  -0.5000000   0.3000000), wk =   0.0120000
        k(   34) = (   0.5000000  -0.6000000   0.4000000), wk =   0.0240000
        k(   35) = (   0.0000000   0.0000000   0.5000000), wk =   0.0060000
        k(   36) = (   0.0000000  -0.1000000   0.6000000), wk =   0.0240000
        k(   37) = (   0.0000000  -0.2000000   0.7000000), wk =   0.0240000
        k(   38) = (  -0.1000000  -0.1000000   0.7000000), wk =   0.0240000
        k(   39) = (  -0.1000000   0.8000000  -0.2000000), wk =   0.0240000
        k(   40) = (   0.5000000  -0.5000000   0.5000000), wk =   0.0020000
        k(   41) = (   0.0000000   0.0000000   0.7000000), wk =   0.0060000
        k(   42) = (   0.0000000  -0.1000000   0.8000000), wk =   0.0240000
        k(   43) = (  -0.1000000   0.9000000  -0.1000000), wk =   0.0080000
        k(   44) = (   0.0000000   0.0000000   0.9000000), wk =   0.0060000

     Dense  grid:    40827 G-vectors     FFT dimensions: (  48,  48,  48)

     Smooth grid:     7803 G-vectors     FFT dimensions: (  27,  27,  27)

     Estimated max dynamical RAM per process >     110.73 MB

     Estimated total dynamical RAM >     201.53 MB

     Check: negative core charge=   -0.000009
     Generating pointlists ...
     new r_m :   0.3572 (alat units)  2.0720 (a.u.) for type    1

     Initial potential from superposition of free atoms

     starting charge   15.99956, renormalised to   16.00000
     Starting wfcs are   13 randomized atomic wfcs

     total cpu time spent up to now is        1.0 secs

     Self-consistent Calculation

     iteration #  1     ecut=    70.00 Ry     beta= 0.70
     Davidson diagonalization with overlap
     ethr =  1.00E-02,  avg # of iterations =  2.9

     negative rho (up, down):  0.000E+00 7.411E-05

     total cpu time spent up to now is        2.1 secs

     total energy              =    -254.05797327 Ry
     estimated scf accuracy    <       1.40599733 Ry

     total magnetization       =     4.16 Bohr mag/cell
     absolute magnetization    =     4.18 Bohr mag/cell

     iteration #  2     ecut=    70.00 Ry     beta= 0.70
     Davidson diagonalization with overlap
     ethr =  8.79E-03,  avg # of iterations =  1.3

     negative rho (up, down):  0.000E+00 7.729E-05

     total cpu time spent up to now is        3.1 secs

     total energy              =    -254.20737179 Ry
     estimated scf accuracy    <       0.44177205 Ry

     total magnetization       =     3.16 Bohr mag/cell
     absolute magnetization    =     3.33 Bohr mag/cell

     iteration #  3     ecut=    70.00 Ry     beta= 0.70
     Davidson diagonalization with overlap
     ethr =  2.76E-03,  avg # of iterations =  2.0

     negative rho (up, down):  0.000E+00 8.872E-05

     total cpu time spent up to now is        4.2 secs

     total energy              =    -254.26075874 Ry
     estimated scf accuracy    <       0.54077865 Ry

     total magnetization       =     3.05 Bohr mag/cell
     absolute magnetization    =     3.21 Bohr mag/cell

     iteration #  4     ecut=    70.00 Ry     beta= 0.70
     Davidson diagonalization with overlap
     ethr =  2.76E-03,  avg # of iterations =  2.0

     negative rho (up, down):  0.000E+00 7.202E-05

     total cpu time spent up to now is        5.2 secs

     total energy              =    -254.34853050 Ry
     estimated scf accuracy    <       0.00105567 Ry

     total magnetization       =     2.66 Bohr mag/cell
     absolute magnetization    =     2.90 Bohr mag/cell

     iteration #  5     ecut=    70.00 Ry     beta= 0.70
     Davidson diagonalization with overlap
     ethr =  6.60E-06,  avg # of iterations =  6.6

     negative rho (up, down):  0.000E+00 7.115E-05

     total cpu time spent up to now is        6.8 secs

     total energy              =    -254.35029500 Ry
     estimated scf accuracy    <       0.00089030 Ry

     total magnetization       =     2.65 Bohr mag/cell
     absolute magnetization    =     2.88 Bohr mag/cell

     iteration #  6     ecut=    70.00 Ry     beta= 0.70
     Davidson diagonalization with overlap
     ethr =  5.56E-06,  avg # of iterations =  1.0

     negative rho (up, down):  0.000E+00 6.668E-05

     total cpu time spent up to now is        7.8 secs

     total energy              =    -254.35024429 Ry
     estimated scf accuracy    <       0.00029355 Ry

     total magnetization       =     2.65 Bohr mag/cell
     absolute magnetization    =     2.88 Bohr mag/cell

     iteration #  7     ecut=    70.00 Ry     beta= 0.70
     Davidson diagonalization with overlap
     ethr =  1.83E-06,  avg # of iterations =  1.9

     negative rho (up, down):  0.000E+00 6.695E-05

     total cpu time spent up to now is        8.8 secs

     total energy              =    -254.35029284 Ry
     estimated scf accuracy    <       0.00000707 Ry

     total magnetization       =     2.65 Bohr mag/cell
     absolute magnetization    =     2.87 Bohr mag/cell

     iteration #  8     ecut=    70.00 Ry     beta= 0.70
     Davidson diagonalization with overlap
     ethr =  4.42E-08,  avg # of iterations =  4.3

     negative rho (up, down):  0.000E+00 6.736E-05

     total cpu time spent up to now is       10.1 secs

     total energy              =    -254.35029614 Ry
     estimated scf accuracy    <       0.00000351 Ry

     total magnetization       =     2.66 Bohr mag/cell
     absolute magnetization    =     2.87 Bohr mag/cell

     iteration #  9     ecut=    70.00 Ry     beta= 0.70
     Davidson diagonalization with overlap
     ethr =  2.19E-08,  avg # of iterations =  1.9

     negative rho (up, down):  0.000E+00 6.763E-05

     total cpu time spent up to now is       11.1 secs

     total energy              =    -254.35029647 Ry
     estimated scf accuracy    <       0.00000016 Ry

     total magnetization       =     2.66 Bohr mag/cell
     absolute magnetization    =     2.87 Bohr mag/cell

     iteration # 10     ecut=    70.00 Ry     beta= 0.70
     Davidson diagonalization with overlap
     ethr =  9.97E-10,  avg # of iterations =  3.7

     negative rho (up, down):  0.000E+00 6.760E-05

     total cpu time spent up to now is       12.4 secs

     total energy              =    -254.35029649 Ry
     estimated scf accuracy    <       0.00000036 Ry

     total magnetization       =     2.66 Bohr mag/cell
     absolute magnetization    =     2.87 Bohr mag/cell

     iteration # 11     ecut=    70.00 Ry     beta= 0.70
     Davidson diagonalization with overlap
     ethr =  9.97E-10,  avg # of iterations =  2.1

     negative rho (up, down):  0.000E+00 6.759E-05

     Magnetic moment per site  (integrated on atomic sphere of radius R)
     atom   1 (R=0.357)  charge= 14.5765  magn=  2.7587

     total cpu time spent up to now is       13.4 secs

     End of self-consistent calculation

 ------ SPIN UP ------------


          k = 0.0000 0.0000 0.1000 (   959 PWs)   bands (ev):

   -74.6808 -40.6219 -40.6195 -40.6195   6.4548  11.3636  11.3636  11.4028
    12.1700  12.2529  34.8233  35.6273

          k = 0.0000-0.1000 0.2000 (   966 PWs)   bands (ev):

   -74.6759 -40.6530 -40.6307 -40.6199   7.1220  11.2401  11.3483  11.6903
    12.0388  12.2924  31.2343  33.8365

          k = 0.0000-0.2000 0.3000 (   973 PWs)   bands (ev):

   -74.6681 -40.7031 -40.6490 -40.6198   8.2940  11.0261  11.3004  12.0371
    12.2090  12.3406  26.7688  31.9180

          k = 0.0000-0.3000 0.4000 (   965 PWs)   bands (ev):

   -74.6602 -40.7527 -40.6667 -40.6191   9.3133  10.8181  11.6689  12.2088
    12.5619  12.7803  22.6322  30.6492

          k = 0.0000-0.4000 0.5000 (   970 PWs)   bands (ev):

   -74.6554 -40.7836 -40.6779 -40.6189   9.5523  10.6925  12.0729  12.2377
    13.1664  13.9111  19.4041  29.6807

          k =-0.1000 0.1000 0.1000 (   965 PWs)   bands (ev):

   -74.6783 -40.6439 -40.6195 -40.6195   6.7931  11.2793  11.2793  11.6345
    12.1929  12.1929  33.2124  33.2124

          k =-0.1000-0.1000 0.3000 (   972 PWs)   bands (ev):

   -74.6697 -40.6873 -40.6430 -40.6278   8.0410  11.1976  11.2068  11.9121
    12.0842  12.3893  29.0232  29.6798

          k =-0.1000-0.2000 0.4000 (   968 PWs)   bands (ev):

   -74.6619 -40.7313 -40.6632 -40.6295   9.2051  10.9614  11.1913  12.0004
    12.4388  12.8691  24.9447  27.7803

          k =-0.1000-0.3000 0.5000 (   968 PWs)   bands (ev):

   -74.6556 -40.7667 -40.6812 -40.6295   9.7535  10.8203  11.4719  12.1576
    12.7313  14.1098  21.1028  26.7013

          k =-0.1000 0.6000-0.4000 (   967 PWs)   bands (ev):

   -74.6532 -40.7802 -40.6883 -40.6292   9.7915  10.7738  11.6431  12.1718
    12.9542  15.4478  18.8980  26.3137

          k =-0.2000 0.2000 0.1000 (   965 PWs)   bands (ev):

   -74.6719 -40.6849 -40.6343 -40.6195   7.7456  11.0779  11.1890  12.1047
    12.1253  12.2404  29.0204  31.3443

          k =-0.2000-0.2000 0.5000 (   966 PWs)   bands (ev):

   -74.6557 -40.7537 -40.6866 -40.6360  10.0002  10.7393  11.1942  12.0872
    12.5500  14.2383  23.4674  23.7825

          k =-0.2000 0.7000-0.4000 (   964 PWs)   bands (ev):

   -74.6519 -40.7627 -40.7077 -40.6379  10.2127  10.7561  11.1523  12.2366
    12.6708  16.3288  20.0955  22.9135

          k =-0.3000 0.3000 0.1000 (   966 PWs)   bands (ev):

   -74.6640 -40.7324 -40.6553 -40.6197   8.9744  10.8524  11.2679  12.1626
    12.2893  12.7802  24.6869  29.8239

          k =-0.3000 0.2000 0.2000 (   967 PWs)   bands (ev):

   -74.6654 -40.7230 -40.6448 -40.6277   8.8444  10.9350  10.9484  12.1352
    12.2962  12.8245  27.0253  27.4942

          k =-0.3000 0.7000-0.3000 (   955 PWs)   bands (ev):

   -74.6504 -40.7396 -40.7396 -40.6402  10.5357  10.7876  10.7876  12.4775
    12.4775  18.9374  18.9374  20.5792

          k =-0.4000 0.4000 0.1000 (   970 PWs)   bands (ev):

   -74.6576 -40.7701 -40.6730 -40.6199   9.5656  10.6819  12.0819  12.2848
    12.3283  13.7327  20.8841  28.8280

          k =-0.4000 0.3000 0.2000 (   962 PWs)   bands (ev):

   -74.6589 -40.7531 -40.6679 -40.6306   9.7977  10.7350  11.1361  12.2008
    12.3630  13.9162  23.1078  25.9592

          k = 0.5000-0.5000 0.1000 (   968 PWs)   bands (ev):

   -74.6551 -40.7844 -40.6798 -40.6197   9.6184  10.6190  12.2657  12.3438
    12.6555  14.7832  18.8106  28.4812

          k = 0.5000-0.6000 0.2000 (   964 PWs)   bands (ev):

   -74.6549 -40.7687 -40.6863 -40.6316   9.9444  10.6385  11.6991  12.2752
    12.4427  15.5719  19.7351  25.2451

          k = 0.5000-0.7000 0.3000 (   968 PWs)   bands (ev):

   -74.6548 -40.7561 -40.6930 -40.6391  10.2642  10.6981  11.1285  12.2710
    12.4243  15.7649  21.8754  22.3054

          k = 0.4000-0.6000 0.3000 (   961 PWs)   bands (ev):

   -74.6532 -40.7484 -40.7117 -40.6412  10.3106  10.7267  11.1876  12.3334
    12.4338  17.7594  19.3592  21.7841

          k = 0.0000 0.0000 0.3000 (   968 PWs)   bands (ev):

   -74.6713 -40.6590 -40.6421 -40.6421   7.7542  11.4171  11.4171  11.7025
    11.7201  12.4324  31.2512  31.7796

          k = 0.0000-0.1000 0.4000 (   969 PWs)   bands (ev):

   -74.6638 -40.7006 -40.6604 -40.6458   8.8301  11.2299  11.3167  11.7389
    12.1504  12.6345  27.2863  29.7659

          k = 0.0000-0.2000 0.5000 (   965 PWs)   bands (ev):

   -74.6563 -40.7470 -40.6788 -40.6438   9.7114  11.0638  11.1473  12.0007
    12.7302  13.4019  23.1234  28.1995

          k = 0.0000-0.3000 0.6000 (   958 PWs)   bands (ev):

   -74.6516 -40.7757 -40.6898 -40.6424   9.8759  11.0406  11.2126  12.0413
    13.1304  15.2051  19.7133  27.3088

          k =-0.1000-0.1000 0.5000 (   965 PWs)   bands (ev):

   -74.6565 -40.7304 -40.6814 -40.6549   9.7265  10.8722  11.4175  11.8394
    12.4996  13.3556  25.5600  25.8373

          k =-0.1000-0.2000 0.6000 (   966 PWs)   bands (ev):

   -74.6506 -40.7587 -40.7010 -40.6557  10.1425  10.7126  11.2840  12.0706
    12.8377  15.1022  21.7803  24.6076

          k =-0.1000 0.7000-0.3000 (   965 PWs)   bands (ev):

   -74.6484 -40.7694 -40.7092 -40.6553  10.1317  10.8356  11.1501  12.1308
    13.0207  16.9690  19.2247  24.2034

          k =-0.2000 0.8000-0.3000 (   959 PWs)   bands (ev):

   -74.6471 -40.7555 -40.7290 -40.6585  10.4624  10.4841  11.0942  12.4192
    12.7771  17.5780  20.6669  21.3756

          k =-0.3000 0.3000 0.3000 (   965 PWs)   bands (ev):

   -74.6601 -40.7476 -40.6473 -40.6473   9.9174  10.7342  10.7342  12.2757
    12.2757  13.9099  25.5438  25.5438

          k = 0.6000-0.6000 0.3000 (   961 PWs)   bands (ev):

   -74.6559 -40.7545 -40.6759 -40.6492  10.3406  10.6213  11.0718  12.3112
    12.3400  15.5753  21.8291  24.8481

          k = 0.5000-0.5000 0.3000 (   962 PWs)   bands (ev):

   -74.6542 -40.7518 -40.6923 -40.6501  10.2882  10.5862  11.4147  12.3348
    12.3564  17.3337  19.3018  24.4697

          k = 0.5000-0.6000 0.4000 (   958 PWs)   bands (ev):

   -74.6540 -40.7355 -40.6979 -40.6635  10.5020  10.7338  11.0063  12.3503
    12.3649  17.8987  20.8765  21.4356

          k = 0.0000 0.0000 0.5000 (   968 PWs)   bands (ev):

   -74.6568 -40.7047 -40.6794 -40.6794   9.6060  10.9725  11.6954  11.6954
    12.1932  13.1709  27.6097  27.6097

          k = 0.0000-0.1000 0.6000 (   967 PWs)   bands (ev):

   -74.6498 -40.7382 -40.6983 -40.6833  10.0839  10.5882  11.7237  11.9580
    12.6599  14.4860  24.0188  25.9536

          k = 0.0000-0.2000 0.7000 (   960 PWs)   bands (ev):

   -74.6455 -40.7633 -40.7098 -40.6808  10.1178  10.4814  11.6669  12.0694
    13.0726  16.7570  20.4454  25.0144

          k =-0.1000-0.1000 0.7000 (   960 PWs)   bands (ev):

   -74.6444 -40.7511 -40.7209 -40.6898  10.1856  10.2738  11.7772  12.3320
    12.8795  16.5278  22.7238  22.9674

          k =-0.1000 0.8000-0.2000 (   956 PWs)   bands (ev):

   -74.6423 -40.7562 -40.7319 -40.6895  10.1245  10.2304  11.7392  12.5183
    12.9893  18.8714  19.9517  22.4248

          k = 0.5000-0.5000 0.5000 (   952 PWs)   bands (ev):

   -74.6537 -40.7000 -40.7000 -40.7000  10.7632  10.7632  10.7632  12.3643
    12.3643  20.5353  20.5353  20.5353

          k = 0.0000 0.0000 0.7000 (   964 PWs)   bands (ev):

   -74.6433 -40.7338 -40.7178 -40.7178  10.0606  10.2146  12.2924  12.2924
    12.6901  16.1320  24.1913  24.1913

          k = 0.0000-0.1000 0.8000 (   962 PWs)   bands (ev):

   -74.6393 -40.7510 -40.7297 -40.7191   9.9527   9.9907  12.4049  12.5394
    13.0158  18.5121  21.5760  23.1727

          k =-0.1000 0.9000-0.1000 (   970 PWs)   bands (ev):

   -74.6374 -40.7460 -40.7460 -40.7228   9.8670   9.8670  12.4761  12.9474
    12.9474  20.8832  20.8832  21.3859

          k = 0.0000 0.0000 0.9000 (   960 PWs)   bands (ev):

   -74.6355 -40.7437 -40.7420 -40.7420   9.7453   9.7468  12.9298  12.9298
    12.9998  20.5322  22.0849  22.0849

 ------ SPIN DOWN ----------


          k = 0.0000 0.0000 0.1000 (   959 PWs)   bands (ev):

   -71.3173 -37.3060 -37.3030 -37.3030   6.5461  13.8236  13.8236  13.8785
    15.2707  15.3903  34.5345  35.3875

          k = 0.0000-0.1000 0.2000 (   966 PWs)   bands (ev):

   -71.3118 -37.3421 -37.3158 -37.3036   7.2223  13.6565  13.7668  14.2092
    15.0673  15.4408  31.5146  33.8431

          k = 0.0000-0.2000 0.3000 (   973 PWs)   bands (ev):

   -71.3029 -37.4008 -37.3367 -37.3034   8.4765  13.3719  13.5553  14.8174
    14.9838  15.4909  27.4119  31.9486

          k = 0.0000-0.3000 0.4000 (   965 PWs)   bands (ev):

   -71.2939 -37.4588 -37.3571 -37.3028   9.9964  13.0989  13.3933  15.0884
    15.5041  15.5607  23.5918  30.4750

          k = 0.0000-0.4000 0.5000 (   970 PWs)   bands (ev):

   -71.2884 -37.4948 -37.3699 -37.3026  10.9943  12.9356  13.7109  15.1749
    15.7257  15.9812  20.8478  29.6758

          k =-0.1000 0.1000 0.1000 (   965 PWs)   bands (ev):

   -71.3145 -37.3314 -37.3030 -37.3030   6.8875  13.7115  13.7115  14.1397
    15.3003  15.3003  33.2583  33.2583

          k =-0.1000-0.1000 0.3000 (   972 PWs)   bands (ev):

   -71.3047 -37.3822 -37.3300 -37.3125   8.1824  13.5531  13.5841  14.6460
    14.8395  15.5406  29.4548  30.2280

          k =-0.1000-0.2000 0.4000 (   968 PWs)   bands (ev):

   -71.2958 -37.4336 -37.3533 -37.3147   9.5908  13.2447  13.3656  14.8550
    15.3078  15.6641  25.7014  28.3344

          k =-0.1000-0.3000 0.5000 (   968 PWs)   bands (ev):

   -71.2887 -37.4749 -37.3740 -37.3147  10.9341  13.0364  13.2579  15.0245
    15.6146  16.2864  22.2031  27.2555

          k =-0.1000 0.6000-0.4000 (   967 PWs)   bands (ev):

   -71.2860 -37.4906 -37.3821 -37.3145  11.4119  12.9993  13.3592  15.0771
    15.7530  16.9008  20.4307  26.8573

          k =-0.2000 0.2000 0.1000 (   965 PWs)   bands (ev):

   -71.3072 -37.3793 -37.3200 -37.3031   7.8688  13.4410  13.5406  14.6661
    15.1644  15.3677  29.4822  31.5380

          k =-0.2000-0.2000 0.5000 (   966 PWs)   bands (ev):

   -71.2888 -37.4596 -37.3806 -37.3220  10.9268  12.8933  13.2681  14.9258
    15.5214  16.4699  24.3073  24.5381

          k =-0.2000 0.7000-0.4000 (   964 PWs)   bands (ev):

   -71.2845 -37.4700 -37.4054 -37.3243  11.8645  12.7895  13.0752  15.0989
    15.5519  17.8735  21.2572  23.6928

          k =-0.3000 0.3000 0.1000 (   966 PWs)   bands (ev):

   -71.2982 -37.4349 -37.3441 -37.3034   9.3153  13.1384  13.3116  15.1594
    15.3721  15.4464  25.4602  30.0289

          k =-0.3000 0.2000 0.2000 (   967 PWs)   bands (ev):

   -71.2998 -37.4238 -37.3323 -37.3126   9.0696  13.1970  13.2042  15.1623
    15.3624  15.4495  27.5665  28.0918

          k =-0.3000 0.7000-0.3000 (   955 PWs)   bands (ev):

   -71.2828 -37.4429 -37.4429 -37.3269  12.5410  12.6708  12.6708  15.3460
    15.3460  20.0848  20.0848  21.6283

          k =-0.4000 0.4000 0.1000 (   970 PWs)   bands (ev):

   -71.2909 -37.4789 -37.3644 -37.3038  10.6916  12.9113  13.3970  15.2337
    15.5149  16.0756  22.0328  28.9990

          k =-0.4000 0.3000 0.2000 (   962 PWs)   bands (ev):

   -71.2924 -37.4590 -37.3591 -37.3161  10.5308  12.9067  13.0316  15.2138
    15.5109  16.2612  23.9594  26.5585

          k = 0.5000-0.5000 0.1000 (   968 PWs)   bands (ev):

   -71.2881 -37.4957 -37.3722 -37.3035  11.1698  12.8278  13.7675  15.2641
    15.5432  16.4670  20.4021  28.6327

          k = 0.5000-0.6000 0.2000 (   964 PWs)   bands (ev):

   -71.2878 -37.4773 -37.3803 -37.3173  11.4701  12.7813  13.1836  15.2929
    15.5534  17.2459  21.0139  25.8351

          k = 0.5000-0.7000 0.3000 (   968 PWs)   bands (ev):

   -71.2877 -37.4623 -37.3885 -37.3259  11.6975  12.6750  12.9071  15.2969
    15.5336  17.5642  22.7814  23.1330

          k = 0.4000-0.6000 0.3000 (   961 PWs)   bands (ev):

   -71.2859 -37.4535 -37.4104 -37.3283  12.1238  12.6846  12.8500  15.3749
    15.5087  18.9896  20.6096  22.6343

          k = 0.0000 0.0000 0.3000 (   968 PWs)   bands (ev):

   -71.3065 -37.3497 -37.3289 -37.3289   7.8737  13.8286  13.8286  14.2325
    14.6194  15.5951  31.3211  32.3514

          k = 0.0000-0.1000 0.4000 (   969 PWs)   bands (ev):

   -71.2980 -37.3979 -37.3500 -37.3333   9.0695  13.6524  13.6896  14.4252
    14.7482  15.7039  27.9178  30.4311

          k = 0.0000-0.2000 0.5000 (   965 PWs)   bands (ev):

   -71.2894 -37.4519 -37.3711 -37.3313  10.4973  13.2200  13.4687  14.6864
    15.4414  15.9439  24.0226  28.8595

          k = 0.0000-0.3000 0.6000 (   958 PWs)   bands (ev):

   -71.2841 -37.4852 -37.3838 -37.3297  11.4529  13.0776  13.3300  14.8098
    15.9373  16.7517  21.0234  27.9244

          k =-0.1000-0.1000 0.5000 (   965 PWs)   bands (ev):

   -71.2897 -37.4326 -37.3743 -37.3439  10.3281  13.2508  13.7315  14.4441
    15.2216  15.9663  26.2976  26.5239

          k =-0.1000-0.2000 0.6000 (   966 PWs)   bands (ev):

   -71.2830 -37.4651 -37.3971 -37.3448  11.5043  12.8362  13.5688  14.7297
    15.6070  16.9310  22.7469  25.3131

          k =-0.1000 0.7000-0.3000 (   965 PWs)   bands (ev):

   -71.2805 -37.4776 -37.4065 -37.3443  11.9755  12.7350  13.4255  14.8142
    15.8057  18.1653  20.5659  24.8908

          k =-0.2000 0.8000-0.3000 (   959 PWs)   bands (ev):

   -71.2791 -37.4611 -37.4300 -37.3478  12.2977  12.5475  13.2854  15.1078
    15.5283  18.8673  21.6680  22.2694

          k =-0.3000 0.3000 0.3000 (   965 PWs)   bands (ev):

   -71.2938 -37.4524 -37.3354 -37.3354  10.3764  12.8841  12.8841  15.3958
    15.3958  16.2887  26.1369  26.1369

          k = 0.6000-0.6000 0.3000 (   961 PWs)   bands (ev):

   -71.2889 -37.4606 -37.3688 -37.3379  11.6168  12.6938  12.7587  15.4216
    15.5230  17.4499  22.7322  25.5429

          k = 0.5000-0.5000 0.3000 (   962 PWs)   bands (ev):

   -71.2871 -37.4576 -37.3877 -37.3389  11.9781  12.6311  12.9432  15.4434
    15.5621  18.5889  20.6133  25.1494

          k = 0.5000-0.6000 0.4000 (   958 PWs)   bands (ev):

   -71.2868 -37.4384 -37.3947 -37.3545  12.3180  12.5847  12.6709  15.5090
    15.5534  19.2115  21.8166  22.3138

          k = 0.0000 0.0000 0.5000 (   968 PWs)   bands (ev):

   -71.2901 -37.4030 -37.3719 -37.3719  10.1076  13.5583  14.0892  14.0892
    14.8157  15.9153  28.2893  28.2893

          k = 0.0000-0.1000 0.6000 (   967 PWs)   bands (ev):

   -71.2822 -37.4414 -37.3937 -37.3768  11.2276  12.9504  14.1251  14.4473
    15.3586  16.4814  24.7950  26.5922

          k = 0.0000-0.2000 0.7000 (   960 PWs)   bands (ev):

   -71.2773 -37.4702 -37.4070 -37.3741  11.9657  12.5311  14.0577  14.5954
    15.8669  18.0147  21.4861  25.5887

          k =-0.1000-0.1000 0.7000 (   960 PWs)   bands (ev):

   -71.2760 -37.4559 -37.4200 -37.3842  11.9013  12.5146  14.1586  14.8832
    15.6192  17.8636  23.5109  23.6650

          k =-0.1000 0.8000-0.2000 (   956 PWs)   bands (ev):

   -71.2737 -37.4616 -37.4329 -37.3838  12.2201  12.2602  14.0729  15.1238
    15.7488  19.7992  20.9499  23.1198

          k = 0.5000-0.5000 0.5000 (   952 PWs)   bands (ev):

   -71.2865 -37.3972 -37.3972 -37.3972  12.5655  12.5655  12.5655  15.5738
    15.5738  21.4859  21.4859  21.4859

          k = 0.0000 0.0000 0.7000 (   964 PWs)   bands (ev):

   -71.2749 -37.4362 -37.4162 -37.4162  11.7367  12.5177  14.7881  14.7881
    15.4108  17.4545  24.7531  24.7531

          k = 0.0000-0.1000 0.8000 (   962 PWs)   bands (ev):

   -71.2703 -37.4553 -37.4300 -37.4180  11.9649  12.1593  14.9618  15.0955
    15.7984  19.3780  22.2374  23.6332

          k =-0.1000 0.9000-0.1000 (   970 PWs)   bands (ev):

   -71.2682 -37.4492 -37.4492 -37.4220  11.9831  11.9831  15.0275  15.6868
    15.6868  21.4747  21.4747  21.9418

          k = 0.0000 0.0000 0.9000 (   960 PWs)   bands (ev):

   -71.2661 -37.4466 -37.4442 -37.4442  11.8441  11.8936  15.6615  15.6615
    15.7837  21.0078  22.3926  22.3926

     the Fermi energy is    13.6355 ev

!    total energy              =    -254.35029652 Ry
     estimated scf accuracy    <          7.6E-09 Ry
     smearing contrib. (-TS)   =       0.00111853 Ry
     internal energy E=F+TS    =    -254.35141505 Ry

     The total energy is F=E-TS. E is the sum of the following terms:
     one-electron contribution =    -132.50802784 Ry
     hartree contribution      =      73.52793666 Ry
     xc contribution           =     -34.74308886 Ry
     ewald contribution        =    -160.62823501 Ry

     total magnetization       =     2.66 Bohr mag/cell
     absolute magnetization    =     2.87 Bohr mag/cell

     convergence has been achieved in  11 iterations

     Writing output data file ./tempdir/fe.save/

     init_run     :      0.88s CPU      0.91s WALL (       1 calls)
     electrons    :     11.94s CPU     12.43s WALL (       1 calls)

     Called by init_run:
     wfcinit      :      0.28s CPU      0.28s WALL (       1 calls)
     potinit      :      0.11s CPU      0.13s WALL (       1 calls)
     hinit0       :      0.40s CPU      0.40s WALL (       1 calls)

     Called by electrons:
     c_bands      :      7.16s CPU      7.22s WALL (      11 calls)
     sum_band     :      2.71s CPU      2.89s WALL (      11 calls)
     v_of_rho     :      1.16s CPU      1.27s WALL (      12 calls)
     newd         :      0.90s CPU      1.07s WALL (      12 calls)
     mix_rho      :      0.09s CPU      0.09s WALL (      11 calls)

     Called by c_bands:
     init_us_2    :      0.17s CPU      0.17s WALL (    1012 calls)
     cegterg      :      6.40s CPU      6.45s WALL (     484 calls)

     Called by *egterg:
     cdiaghg      :      0.19s CPU      0.19s WALL (    1790 calls)
     h_psi        :      5.89s CPU      5.93s WALL (    1834 calls)
     s_psi        :      0.08s CPU      0.08s WALL (    1834 calls)
     g_psi        :      0.03s CPU      0.03s WALL (    1306 calls)

     Called by h_psi:
     h_psi:calbec :      0.10s CPU      0.10s WALL (    1834 calls)
     vloc_psi     :      5.69s CPU      5.73s WALL (    1834 calls)
     add_vuspsi   :      0.08s CPU      0.08s WALL (    1834 calls)

     General routines
     calbec       :      0.13s CPU      0.13s WALL (    2318 calls)
     fft          :      0.51s CPU      0.52s WALL (     294 calls)
     ffts         :      0.01s CPU      0.01s WALL (      46 calls)
     fftw         :      6.20s CPU      6.25s WALL (   36786 calls)
     interpolate  :      0.06s CPU      0.06s WALL (      24 calls)

     Parallel routines

     PWSCF        :     12.91s CPU     13.43s WALL


   This run was terminated on:   0:19:56  19Apr2021            

=------------------------------------------------------------------------------=
   JOB DONE.
=------------------------------------------------------------------------------=
