
     Program PWSCF v.6.7GPU starts on 19Apr2021 at  0:18:24 

     This program is part of the open-source Quantum ESPRESSO suite
     for quantum simulation of materials; please cite
         "P. Giannozzi et al., J. Phys.:Condens. Matter 21 395502 (2009);
         "P. Giannozzi et al., J. Phys.:Condens. Matter 29 465901 (2017);
         "P. Giannozzi et al., J. Chem. Phys. 152 154105 (2020);
          URL http://www.quantum-espresso.org", 
     in publications or presentations arising from this work. More details at
     http://www.quantum-espresso.org/quote

     Parallel version (MPI & OpenMP), running on       2 processor cores
     Number of MPI processes:                 2
     Threads/MPI process:                     1

     MPI processes distributed on     1 nodes
     K-points division:     npool     =       2
     Reading input from fe.scf.5.2.in

     Current dimensions of program PWSCF are:
     Max number of different atomic species (ntypx) = 10
     Max number of k-points (npk) =  40000
     Max angular momentum in pseudopotentials (lmaxx) =  3

     Subspace diagonalization in iterative solution of the eigenvalue problem:
     a serial algorithm will be used


     G-vector sticks info
     --------------------
     sticks:   dense  smooth     PW     G-vecs:    dense   smooth      PW
     Sum        1291     415    129                29389     5473     959

     Using Slab Decomposition



     bravais-lattice index     =            3
     lattice parameter (alat)  =       5.2000  a.u.
     unit-cell volume          =      70.3040 (a.u.)^3
     number of atoms/cell      =            1
     number of atomic types    =            1
     number of electrons       =        16.00
     number of Kohn-Sham states=           12
     kinetic-energy cutoff     =      70.0000  Ry
     charge density cutoff     =     850.0000  Ry
     scf convergence threshold =      1.0E-08
     mixing beta               =       0.7000
     number of iterations used =            8  plain     mixing
     Exchange-correlation= PBE
                           (   1   4   3   4   0   0   0)

     celldm(1)=   5.200000  celldm(2)=   0.000000  celldm(3)=   0.000000
     celldm(4)=   0.000000  celldm(5)=   0.000000  celldm(6)=   0.000000

     crystal axes: (cart. coord. in units of alat)
               a(1) = (   0.500000   0.500000   0.500000 )  
               a(2) = (  -0.500000   0.500000   0.500000 )  
               a(3) = (  -0.500000  -0.500000   0.500000 )  

     reciprocal axes: (cart. coord. in units 2 pi/alat)
               b(1) = (  1.000000  0.000000  1.000000 )  
               b(2) = ( -1.000000  1.000000  0.000000 )  
               b(3) = (  0.000000 -1.000000  1.000000 )  


     PseudoPot. # 1 for Fe read from file:
     /home/pietro/repositories/materials-for-max-qe2021-online-school/pseudo/Fe.pbe-spn-rrkjus_psl.0.2.1.UPF
     MD5 check sum: f9af58635850a145d9bd408d58feeb93
     Pseudo is Ultrasoft + core correction, Zval = 16.0
     Generated using "atomic" code by A. Dal Corso  v.5.0.2 svn rev. 9415
     Using radial grid of 1191 points,  6 beta functions with: 
                l(1) =   0
                l(2) =   0
                l(3) =   1
                l(4) =   1
                l(5) =   2
                l(6) =   2
     Q(r) pseudized with 0 coefficients 


     atomic species   valence    mass     pseudopotential
        Fe            16.00    55.84500     Fe( 1.00)

     Starting magnetic structure 
     atomic species   magnetization
        Fe           0.700

     48 Sym. Ops., with inversion, found



   Cartesian axes

     site n.     atom                  positions (alat units)
         1           Fe  tau(   1) = (   0.0000000   0.0000000   0.0000000  )

     number of k points=    44  Marzari-Vanderbilt smearing, width (Ry)=  0.0200
                       cart. coord. in units 2pi/alat
        k(    1) = (   0.0000000   0.0000000   0.1000000), wk =   0.0060000
        k(    2) = (   0.0000000  -0.1000000   0.2000000), wk =   0.0240000
        k(    3) = (   0.0000000  -0.2000000   0.3000000), wk =   0.0240000
        k(    4) = (   0.0000000  -0.3000000   0.4000000), wk =   0.0240000
        k(    5) = (   0.0000000  -0.4000000   0.5000000), wk =   0.0240000
        k(    6) = (  -0.1000000   0.1000000   0.1000000), wk =   0.0080000
        k(    7) = (  -0.1000000  -0.1000000   0.3000000), wk =   0.0240000
        k(    8) = (  -0.1000000  -0.2000000   0.4000000), wk =   0.0480000
        k(    9) = (  -0.1000000  -0.3000000   0.5000000), wk =   0.0480000
        k(   10) = (  -0.1000000   0.6000000  -0.4000000), wk =   0.0240000
        k(   11) = (  -0.2000000   0.2000000   0.1000000), wk =   0.0240000
        k(   12) = (  -0.2000000  -0.2000000   0.5000000), wk =   0.0240000
        k(   13) = (  -0.2000000   0.7000000  -0.4000000), wk =   0.0480000
        k(   14) = (  -0.3000000   0.3000000   0.1000000), wk =   0.0240000
        k(   15) = (  -0.3000000   0.2000000   0.2000000), wk =   0.0240000
        k(   16) = (  -0.3000000   0.7000000  -0.3000000), wk =   0.0080000
        k(   17) = (  -0.4000000   0.4000000   0.1000000), wk =   0.0240000
        k(   18) = (  -0.4000000   0.3000000   0.2000000), wk =   0.0480000
        k(   19) = (   0.5000000  -0.5000000   0.1000000), wk =   0.0120000
        k(   20) = (   0.5000000  -0.6000000   0.2000000), wk =   0.0480000
        k(   21) = (   0.5000000  -0.7000000   0.3000000), wk =   0.0240000
        k(   22) = (   0.4000000  -0.6000000   0.3000000), wk =   0.0240000
        k(   23) = (   0.0000000   0.0000000   0.3000000), wk =   0.0060000
        k(   24) = (   0.0000000  -0.1000000   0.4000000), wk =   0.0240000
        k(   25) = (   0.0000000  -0.2000000   0.5000000), wk =   0.0240000
        k(   26) = (   0.0000000  -0.3000000   0.6000000), wk =   0.0240000
        k(   27) = (  -0.1000000  -0.1000000   0.5000000), wk =   0.0240000
        k(   28) = (  -0.1000000  -0.2000000   0.6000000), wk =   0.0480000
        k(   29) = (  -0.1000000   0.7000000  -0.3000000), wk =   0.0240000
        k(   30) = (  -0.2000000   0.8000000  -0.3000000), wk =   0.0240000
        k(   31) = (  -0.3000000   0.3000000   0.3000000), wk =   0.0080000
        k(   32) = (   0.6000000  -0.6000000   0.3000000), wk =   0.0240000
        k(   33) = (   0.5000000  -0.5000000   0.3000000), wk =   0.0120000
        k(   34) = (   0.5000000  -0.6000000   0.4000000), wk =   0.0240000
        k(   35) = (   0.0000000   0.0000000   0.5000000), wk =   0.0060000
        k(   36) = (   0.0000000  -0.1000000   0.6000000), wk =   0.0240000
        k(   37) = (   0.0000000  -0.2000000   0.7000000), wk =   0.0240000
        k(   38) = (  -0.1000000  -0.1000000   0.7000000), wk =   0.0240000
        k(   39) = (  -0.1000000   0.8000000  -0.2000000), wk =   0.0240000
        k(   40) = (   0.5000000  -0.5000000   0.5000000), wk =   0.0020000
        k(   41) = (   0.0000000   0.0000000   0.7000000), wk =   0.0060000
        k(   42) = (   0.0000000  -0.1000000   0.8000000), wk =   0.0240000
        k(   43) = (  -0.1000000   0.9000000  -0.1000000), wk =   0.0080000
        k(   44) = (   0.0000000   0.0000000   0.9000000), wk =   0.0060000

     Dense  grid:    29389 G-vectors     FFT dimensions: (  45,  45,  45)

     Smooth grid:     5473 G-vectors     FFT dimensions: (  24,  24,  24)

     Estimated max dynamical RAM per process >      81.60 MB

     Estimated total dynamical RAM >     148.84 MB

     Check: negative core charge=   -0.000011
     Generating pointlists ...
     new r_m :   0.3572 (alat units)  1.8576 (a.u.) for type    1

     Initial potential from superposition of free atoms

     starting charge   15.99956, renormalised to   16.00000
     Starting wfcs are   13 randomized atomic wfcs

     total cpu time spent up to now is        0.8 secs

     Self-consistent Calculation

     iteration #  1     ecut=    70.00 Ry     beta= 0.70
     Davidson diagonalization with overlap
     ethr =  1.00E-02,  avg # of iterations =  3.4

     negative rho (up, down):  0.000E+00 4.851E-05

     total cpu time spent up to now is        1.6 secs

     total energy              =    -254.06160770 Ry
     estimated scf accuracy    <       1.53831960 Ry

     total magnetization       =     3.76 Bohr mag/cell
     absolute magnetization    =     3.79 Bohr mag/cell

     iteration #  2     ecut=    70.00 Ry     beta= 0.70
     Davidson diagonalization with overlap
     ethr =  9.61E-03,  avg # of iterations =  1.2

     negative rho (up, down):  0.000E+00 5.586E-05

     total cpu time spent up to now is        2.2 secs

     total energy              =    -254.27168390 Ry
     estimated scf accuracy    <       0.32228693 Ry

     total magnetization       =     2.99 Bohr mag/cell
     absolute magnetization    =     3.11 Bohr mag/cell

     iteration #  3     ecut=    70.00 Ry     beta= 0.70
     Davidson diagonalization with overlap
     ethr =  2.01E-03,  avg # of iterations =  2.1

     negative rho (up, down):  0.000E+00 5.539E-05

     total cpu time spent up to now is        2.9 secs

     total energy              =    -254.30119087 Ry
     estimated scf accuracy    <       0.37872327 Ry

     total magnetization       =     2.32 Bohr mag/cell
     absolute magnetization    =     2.45 Bohr mag/cell

     iteration #  4     ecut=    70.00 Ry     beta= 0.70
     Davidson diagonalization with overlap
     ethr =  2.01E-03,  avg # of iterations =  2.0

     negative rho (up, down):  0.000E+00 3.426E-05

     total cpu time spent up to now is        3.6 secs

     total energy              =    -254.36186156 Ry
     estimated scf accuracy    <       0.00216653 Ry

     total magnetization       =     2.21 Bohr mag/cell
     absolute magnetization    =     2.34 Bohr mag/cell

     iteration #  5     ecut=    70.00 Ry     beta= 0.70
     Davidson diagonalization with overlap
     ethr =  1.35E-05,  avg # of iterations =  5.2

     negative rho (up, down):  0.000E+00 2.784E-05

     total cpu time spent up to now is        4.5 secs

     total energy              =    -254.36481125 Ry
     estimated scf accuracy    <       0.00057421 Ry

     total magnetization       =     2.08 Bohr mag/cell
     absolute magnetization    =     2.19 Bohr mag/cell

     iteration #  6     ecut=    70.00 Ry     beta= 0.70
     Davidson diagonalization with overlap
     ethr =  3.59E-06,  avg # of iterations =  2.1

     negative rho (up, down):  0.000E+00 2.191E-05

     total cpu time spent up to now is        5.2 secs

     total energy              =    -254.36502813 Ry
     estimated scf accuracy    <       0.00033172 Ry

     total magnetization       =     2.03 Bohr mag/cell
     absolute magnetization    =     2.13 Bohr mag/cell

     iteration #  7     ecut=    70.00 Ry     beta= 0.70
     Davidson diagonalization with overlap
     ethr =  2.07E-06,  avg # of iterations =  1.5

     negative rho (up, down):  0.000E+00 2.385E-05

     total cpu time spent up to now is        5.9 secs

     total energy              =    -254.36519187 Ry
     estimated scf accuracy    <       0.00001142 Ry

     total magnetization       =     1.99 Bohr mag/cell
     absolute magnetization    =     2.08 Bohr mag/cell

     iteration #  8     ecut=    70.00 Ry     beta= 0.70
     Davidson diagonalization with overlap
     ethr =  7.14E-08,  avg # of iterations =  2.8

     negative rho (up, down):  0.000E+00 2.339E-05

     total cpu time spent up to now is        6.6 secs

     total energy              =    -254.36519911 Ry
     estimated scf accuracy    <       0.00000712 Ry

     total magnetization       =     2.00 Bohr mag/cell
     absolute magnetization    =     2.09 Bohr mag/cell

     iteration #  9     ecut=    70.00 Ry     beta= 0.70
     Davidson diagonalization with overlap
     ethr =  4.45E-08,  avg # of iterations =  1.6

     negative rho (up, down):  0.000E+00 2.333E-05

     total cpu time spent up to now is        7.2 secs

     total energy              =    -254.36520204 Ry
     estimated scf accuracy    <       0.00000021 Ry

     total magnetization       =     2.00 Bohr mag/cell
     absolute magnetization    =     2.09 Bohr mag/cell

     iteration # 10     ecut=    70.00 Ry     beta= 0.70
     Davidson diagonalization with overlap
     ethr =  1.32E-09,  avg # of iterations =  3.3

     negative rho (up, down):  0.000E+00 2.329E-05

     Magnetic moment per site  (integrated on atomic sphere of radius R)
     atom   1 (R=0.357)  charge= 14.3223  magn=  2.0306

     total cpu time spent up to now is        8.0 secs

     End of self-consistent calculation

 ------ SPIN UP ------------


          k = 0.0000 0.0000 0.1000 (   679 PWs)   bands (ev):

   -67.8875 -33.6254 -33.6159 -33.6159  11.4901  17.8817  17.8817  17.9489
    19.1383  19.2911  44.8459  45.9255

          k = 0.0000-0.1000 0.2000 (   686 PWs)   bands (ev):

   -67.8671 -33.7248 -33.6499 -33.6186  12.3376  17.6639  17.8279  18.4193
    18.9083  19.3659  41.6937  44.4085

          k = 0.0000-0.2000 0.3000 (   688 PWs)   bands (ev):

   -67.8339 -33.8875 -33.7041 -33.6182  13.7515  17.2935  17.6654  18.9387
    19.2753  19.4566  37.1353  42.1823

          k = 0.0000-0.3000 0.4000 (   686 PWs)   bands (ev):

   -67.8006 -34.0477 -33.7577 -33.6178  14.8000  16.9393  18.1414  19.2375
    19.7204  20.2300  32.5799  40.3896

          k = 0.0000-0.4000 0.5000 (   695 PWs)   bands (ev):

   -67.7799 -34.1465 -33.7909 -33.6178  14.9492  16.7279  18.8796  19.3049
    20.8851  20.9596  29.0966  39.4042

          k =-0.1000 0.1000 0.1000 (   679 PWs)   bands (ev):

   -67.8771 -33.6937 -33.6162 -33.6162  11.9227  17.7306  17.7306  18.3296
    19.1839  19.1839  43.6205  43.6205

          k =-0.1000-0.1000 0.3000 (   684 PWs)   bands (ev):

   -67.8406 -33.8355 -33.6877 -33.6419  13.4685  17.5460  17.5760  18.7035
    19.0613  19.5419  39.2633  40.7746

          k =-0.1000-0.2000 0.4000 (   692 PWs)   bands (ev):

   -67.8078 -33.9776 -33.7506 -33.6484  14.7975  17.1253  17.4923  18.8815
    19.6482  20.2710  35.1016  38.3630

          k =-0.1000-0.3000 0.5000 (   690 PWs)   bands (ev):

   -67.7812 -34.0910 -33.8047 -33.6492  15.2929  16.9219  17.8445  19.1597
    20.0936  21.8196  30.8427  37.0524

          k =-0.1000 0.6000-0.4000 (   703 PWs)   bands (ev):

   -67.7711 -34.1348 -33.8261 -33.6498  15.2779  16.8527  18.1110  19.1932
    20.4538  23.1207  28.5486  36.5766

          k =-0.2000 0.2000 0.1000 (   686 PWs)   bands (ev):

   -67.8500 -33.8272 -33.6614 -33.6177  13.1117  17.3787  17.5351  19.0650
    19.1113  19.2758  39.4663  41.7399

          k =-0.2000-0.2000 0.5000 (   701 PWs)   bands (ev):

   -67.7817 -34.0477 -33.8272 -33.6682  15.7239  16.6936  17.4963  19.0365
    19.8329  22.1154  33.1386  34.1311

          k =-0.2000 0.7000-0.4000 (   704 PWs)   bands (ev):

   -67.7656 -34.0762 -33.8948 -33.6743  15.9290  16.7670  17.3502  19.2964
    20.0182  24.5651  29.5618  32.8615

          k =-0.3000 0.3000 0.1000 (   685 PWs)   bands (ev):

   -67.8162 -33.9814 -33.7252 -33.6189  14.5189  16.9943  17.5935  19.1705
    19.3716  20.1683  34.8316  39.9588

          k =-0.3000 0.2000 0.2000 (   687 PWs)   bands (ev):

   -67.8222 -33.9491 -33.6963 -33.6431  14.4426  17.0864  17.1435  19.1084
    19.3888  20.2284  37.0881  38.1239

          k =-0.3000 0.7000-0.3000 (   715 PWs)   bands (ev):

   -67.7596 -34.0015 -34.0015 -33.6813  16.4862  16.7497  16.7497  19.7005
    19.7005  27.6877  27.6877  30.6469

          k =-0.4000 0.4000 0.1000 (   697 PWs)   bands (ev):

   -67.7889 -34.1036 -33.7785 -33.6205  15.0364  16.7085  18.7486  19.3497
    19.4507  21.3926  30.6349  38.6982

          k =-0.4000 0.3000 0.2000 (   693 PWs)   bands (ev):

   -67.7944 -34.0471 -33.7691 -33.6542  15.4773  16.7687  17.3855  19.2354
    19.5127  21.7503  32.9924  36.2014

          k = 0.5000-0.5000 0.1000 (   696 PWs)   bands (ev):

   -67.7784 -34.1495 -33.7990 -33.6208  15.0362  16.6039  19.3660  19.4829
    19.6243  22.3030  28.5041  38.2450

          k = 0.5000-0.6000 0.2000 (   698 PWs)   bands (ev):

   -67.7772 -34.0986 -33.8255 -33.6582  15.5411  16.6222  18.1979  19.3732
    19.6318  23.5915  29.3230  35.3287

          k = 0.5000-0.7000 0.3000 (   698 PWs)   bands (ev):

   -67.7767 -34.0556 -33.8521 -33.6799  16.0619  16.6580  17.3579  19.3585
    19.6204  24.0359  31.2170  32.4556

          k = 0.4000-0.6000 0.3000 (   704 PWs)   bands (ev):

   -67.7700 -34.0334 -33.9122 -33.6874  16.1070  16.7184  17.4116  19.4684
    19.6325  26.2005  28.6665  31.6632

          k = 0.0000 0.0000 0.3000 (   695 PWs)   bands (ev):

   -67.8477 -33.7497 -33.6849 -33.6849  13.1215  17.9458  17.9458  18.3235
    18.4345  19.6193  41.0675  43.2477

          k = 0.0000-0.1000 0.4000 (   689 PWs)   bands (ev):

   -67.8162 -33.8807 -33.7404 -33.6979  14.3909  17.5022  17.7673  18.4349
    19.1719  19.9456  37.6948  41.1164

          k = 0.0000-0.2000 0.5000 (   695 PWs)   bands (ev):

   -67.7845 -34.0274 -33.7956 -33.6947  15.3095  17.1843  17.4774  18.8775
    20.1418  20.9212  33.1065  39.2909

          k = 0.0000-0.3000 0.6000 (   703 PWs)   bands (ev):

   -67.7650 -34.1183 -33.8298 -33.6918  15.3870  17.2967  17.4059  18.9586
    20.8229  22.9170  29.3373  38.1699

          k =-0.1000-0.1000 0.5000 (   706 PWs)   bands (ev):

   -67.7859 -33.9748 -33.8069 -33.7270  15.3913  16.8765  17.9057  18.6144
    19.7552  20.9347  35.6280  36.4863

          k =-0.1000-0.2000 0.6000 (   700 PWs)   bands (ev):

   -67.7612 -34.0610 -33.8687 -33.7287  15.8014  16.6147  17.6721  19.0043
    20.3125  23.0913  31.5072  34.8015

          k =-0.1000 0.7000-0.3000 (   707 PWs)   bands (ev):

   -67.7518 -34.0956 -33.8929 -33.7278  15.7243  16.7949  17.4677  19.1089
    20.6187  25.0966  28.7570  34.2853

          k =-0.2000 0.8000-0.3000 (   700 PWs)   bands (ev):

   -67.7467 -34.0486 -33.9612 -33.7347  16.1949  16.2634  17.3721  19.5919
    20.2011  26.1110  29.8351  31.3384

          k =-0.3000 0.3000 0.3000 (   697 PWs)   bands (ev):

   -67.7995 -34.0282 -33.7071 -33.7071  15.7613  16.7620  16.7620  19.3609
    19.3609  21.7873  35.3802  35.3802

          k = 0.6000-0.6000 0.3000 (   696 PWs)   bands (ev):

   -67.7810 -34.0521 -33.7985 -33.7151  16.1678  16.5861  17.2763  19.4305
    19.4767  23.8437  31.4625  34.2940

          k = 0.5000-0.5000 0.3000 (   702 PWs)   bands (ev):

   -67.7740 -34.0458 -33.8494 -33.7186  16.0577  16.5329  17.7786  19.4746
    19.5066  25.6603  28.8199  33.9189

          k = 0.5000-0.6000 0.4000 (   695 PWs)   bands (ev):

   -67.7727 -33.9923 -33.8721 -33.7605  16.4007  16.7395  17.1657  19.4977
    19.5222  26.5666  29.9985  31.3796

          k = 0.0000 0.0000 0.5000 (   703 PWs)   bands (ev):

   -67.7874 -33.8975 -33.7989 -33.7989  15.2475  17.0173  18.3810  18.3810
    19.2411  20.7151  38.5388  38.5399

          k = 0.0000-0.1000 0.6000 (   698 PWs)   bands (ev):

   -67.7585 -33.9955 -33.8565 -33.8151  15.7249  16.3775  18.4238  18.8090
    20.0196  22.3477  34.0872  36.4664

          k = 0.0000-0.2000 0.7000 (   700 PWs)   bands (ev):

   -67.7406 -34.0725 -33.8919 -33.8086  15.6608  16.2173  18.3269  18.9965
    20.7231  25.0048  29.9633  35.2347

          k =-0.1000-0.1000 0.7000 (   693 PWs)   bands (ev):

   -67.7363 -34.0319 -33.9289 -33.8334  15.7780  15.8597  18.5076  19.4355
    20.3880  24.8298  32.3396  32.9457

          k =-0.1000 0.8000-0.2000 (   695 PWs)   bands (ev):

   -67.7278 -34.0462 -33.9646 -33.8321  15.6314  15.8053  18.4439  19.7533
    20.5711  27.4864  29.3020  32.1443

          k = 0.5000-0.5000 0.5000 (   688 PWs)   bands (ev):

   -67.7712 -33.8796 -33.8796 -33.8796  16.7966  16.7966  16.7966  19.5214
    19.5214  29.5820  29.5820  29.5820

          k = 0.0000 0.0000 0.7000 (   699 PWs)   bands (ev):

   -67.7324 -33.9804 -33.9170 -33.9170  15.5811  15.7509  19.3652  19.3652
    20.0731  24.3282  34.1764  34.1764

          k = 0.0000-0.1000 0.8000 (   699 PWs)   bands (ev):

   -67.7162 -34.0265 -33.9537 -33.9241  15.3443  15.4063  19.5623  19.7840
    20.6257  27.1519  30.9800  32.7937

          k =-0.1000 0.9000-0.1000 (   697 PWs)   bands (ev):

   -67.7085 -34.0066 -34.0066 -33.9323  15.1988  15.1988  19.6810  20.4996
    20.4996  29.8965  29.8965  30.8346

          k = 0.0000 0.0000 0.9000 (   691 PWs)   bands (ev):

   -67.7011 -34.0012 -33.9911 -33.9911  14.9951  15.0011  20.4693  20.4693
    20.6000  29.4576  31.2785  31.2785

 ------ SPIN DOWN ----------


          k = 0.0000 0.0000 0.1000 (   679 PWs)   bands (ev):

   -65.3605 -31.1216 -31.1108 -31.1108  11.6735  19.5608  19.5608  19.6406
    21.7770  21.9695  44.7907  45.7938

          k = 0.0000-0.1000 0.2000 (   686 PWs)   bands (ev):

   -65.3383 -31.2313 -31.1478 -31.1139  12.5334  19.3065  19.4888  20.1461
    21.4531  22.0525  42.0004  44.5024

          k = 0.0000-0.2000 0.3000 (   688 PWs)   bands (ev):

   -65.3022 -31.4109 -31.2069 -31.1137  14.0374  18.8787  19.2573  21.0749
    21.3267  22.1406  37.7691  42.3374

          k = 0.0000-0.3000 0.4000 (   686 PWs)   bands (ev):

   -65.2660 -31.5875 -31.2654 -31.1134  15.5188  18.4733  19.3717  21.5041
    22.1245  22.2763  33.4710  40.5237

          k = 0.0000-0.4000 0.5000 (   695 PWs)   bands (ev):

   -65.2435 -31.6961 -31.3016 -31.1133  16.0860  18.2330  20.2463  21.6545
    22.6102  22.8559  30.2940  39.5074

          k =-0.1000 0.1000 0.1000 (   679 PWs)   bands (ev):

   -65.3492 -31.1967 -31.1112 -31.1112  12.1104  19.3906  19.3906  20.0456
    21.8244  21.8244  43.7572  43.7573

          k =-0.1000-0.1000 0.3000 (   684 PWs)   bands (ev):

   -65.3095 -31.3535 -31.1892 -31.1394  13.7104  19.1691  19.2226  20.8227
    21.0955  22.2271  39.7625  41.2129

          k =-0.1000-0.2000 0.4000 (   692 PWs)   bands (ev):

   -65.2739 -31.5101 -31.2580 -31.1466  15.2718  18.7388  18.9958  21.1266
    21.8390  22.4742  35.8430  38.8650

          k =-0.1000-0.3000 0.5000 (   690 PWs)   bands (ev):

   -65.2449 -31.6349 -31.3172 -31.1477  16.3230  18.4442  19.1989  21.4062
    22.3374  23.4917  31.8342  37.5590

          k =-0.1000 0.6000-0.4000 (   703 PWs)   bands (ev):

   -65.2339 -31.6828 -31.3406 -31.1482  16.5143  18.3533  19.5465  21.4991
    22.5525  24.4122  29.7826  37.0752

          k =-0.2000 0.2000 0.1000 (   686 PWs)   bands (ev):

   -65.3197 -31.3441 -31.1605 -31.1130  13.3305  18.9847  19.1617  20.8607
    21.6107  21.9327  39.9373  42.0100

          k =-0.2000-0.2000 0.5000 (   701 PWs)   bands (ev):

   -65.2455 -31.5869 -31.3426 -31.1680  16.5777  18.3085  18.8921  21.2381
    22.1895  23.8014  33.9911  34.7868

          k =-0.2000 0.7000-0.4000 (   704 PWs)   bands (ev):

   -65.2279 -31.6179 -31.4171 -31.1746  17.1991  18.2665  18.7749  21.5176
    22.2342  25.8564  30.5983  33.5699

          k =-0.3000 0.3000 0.1000 (   685 PWs)   bands (ev):

   -65.2830 -31.5143 -31.2302 -31.1145  14.9526  18.5369  18.9928  21.6101
    21.9578  22.0604  35.5735  40.2344

          k =-0.3000 0.2000 0.2000 (   687 PWs)   bands (ev):

   -65.2895 -31.4785 -31.1991 -31.1409  14.7505  18.6665  18.6676  21.6075
    21.9487  22.0849  37.6727  38.6263

          k =-0.3000 0.7000-0.3000 (   715 PWs)   bands (ev):

   -65.2214 -31.5352 -31.5352 -31.1820  17.8419  18.2258  18.2258  21.9009
    21.9009  28.7574  28.7574  31.4839

          k =-0.4000 0.4000 0.1000 (   697 PWs)   bands (ev):

   -65.2532 -31.6489 -31.2883 -31.1163  16.0159  18.2048  19.6239  21.7365
    22.1736  23.0660  31.6516  38.9329

          k =-0.4000 0.3000 0.2000 (   693 PWs)   bands (ev):

   -65.2592 -31.5864 -31.2788 -31.1532  16.2044  18.2611  18.6322  21.6928
    22.1707  23.4009  33.7954  36.7470

          k = 0.5000-0.5000 0.1000 (   696 PWs)   bands (ev):

   -65.2418 -31.6994 -31.3106 -31.1167  16.2094  18.0836  20.3656  21.7934
    22.2211  23.6791  29.7695  38.4578

          k = 0.5000-0.6000 0.2000 (   698 PWs)   bands (ev):

   -65.2405 -31.6432 -31.3406 -31.1577  16.7056  18.0660  19.2677  21.8272
    22.2386  24.8856  30.4084  35.8642

          k = 0.5000-0.7000 0.3000 (   698 PWs)   bands (ev):

   -65.2400 -31.5956 -31.3706 -31.1812  17.1857  18.0771  18.5268  21.8226
    22.2097  25.3971  32.0838  33.1702

          k = 0.4000-0.6000 0.3000 (   704 PWs)   bands (ev):

   -65.2326 -31.5710 -31.4369 -31.1894  17.3794  18.0851  18.6364  21.9499
    22.1620  27.2664  29.7150  32.4117

          k = 0.0000 0.0000 0.3000 (   695 PWs)   bands (ev):

   -65.3172 -31.2597 -31.1860 -31.1860  13.3434  19.5857  19.5857  20.1685
    20.7473  22.3192  41.4055  43.6712

          k = 0.0000-0.1000 0.4000 (   689 PWs)   bands (ev):

   -65.2829 -31.4037 -31.2466 -31.2008  14.7416  19.3514  19.3761  20.4643
    20.9613  22.5428  38.3385  41.4061

          k = 0.0000-0.2000 0.5000 (   695 PWs)   bands (ev):

   -65.2486 -31.5648 -31.3070 -31.1974  16.1192  18.8759  19.0456  20.8939
    22.0253  23.0341  33.9644  39.8771

          k = 0.0000-0.3000 0.6000 (   703 PWs)   bands (ev):

   -65.2273 -31.6644 -31.3443 -31.1944  16.6597  18.8403  18.9709  21.0930
    22.7870  24.3105  30.4598  38.7274

          k =-0.1000-0.1000 0.5000 (   706 PWs)   bands (ev):

   -65.2500 -31.5068 -31.3197 -31.2325  16.0553  18.7489  19.4834  20.5080
    21.6909  23.0753  36.4122  37.0870

          k =-0.1000-0.2000 0.6000 (   700 PWs)   bands (ev):

   -65.2233 -31.6011 -31.3877 -31.2344  17.0063  18.2888  19.2539  20.9597
    22.3068  24.6122  32.4223  35.4677

          k =-0.1000 0.7000-0.3000 (   707 PWs)   bands (ev):

   -65.2130 -31.6388 -31.4143 -31.2333  17.1871  18.3858  19.0241  21.1047
    22.6036  26.2512  29.8805  34.9401

          k =-0.2000 0.8000-0.3000 (   700 PWs)   bands (ev):

   -65.2076 -31.5867 -31.4900 -31.2407  17.7487  17.8715  18.8885  21.5373
    22.1907  27.2795  30.8254  32.0919

          k =-0.3000 0.3000 0.3000 (   697 PWs)   bands (ev):

   -65.2647 -31.5654 -31.2113 -31.2113  16.2147  18.2359  18.2359  21.9816
    21.9816  23.4402  35.9878  35.9878

          k = 0.6000-0.6000 0.3000 (   696 PWs)   bands (ev):

   -65.2446 -31.5918 -31.3118 -31.2203  17.2194  17.9824  18.3571  22.0259
    22.1879  25.2155  32.2884  34.8950

          k = 0.5000-0.5000 0.3000 (   702 PWs)   bands (ev):

   -65.2369 -31.5849 -31.3675 -31.2243  17.2668  17.9008  18.8348  22.0629
    22.2519  26.7028  29.8896  34.5138

          k = 0.5000-0.6000 0.4000 (   695 PWs)   bands (ev):

   -65.2355 -31.5259 -31.3932 -31.2704  17.6676  18.0150  18.2810  22.1650
    22.2378  27.6278  30.8504  32.1412

          k = 0.0000 0.0000 0.5000 (   703 PWs)   bands (ev):

   -65.2518 -31.4227 -31.3108 -31.3108  15.8527  19.1364  20.0090  20.0090
    21.0492  22.9996  39.1401  39.1404

          k = 0.0000-0.1000 0.6000 (   698 PWs)   bands (ev):

   -65.2204 -31.5292 -31.3739 -31.3292  16.8176  18.2883  20.0578  20.5544
    21.8917  24.0232  34.8510  37.0488

          k = 0.0000-0.2000 0.7000 (   700 PWs)   bands (ev):

   -65.2010 -31.6131 -31.4126 -31.3222  17.2157  17.8875  19.9523  20.8082
    22.6766  26.1635  30.9115  35.7690

          k =-0.1000-0.1000 0.7000 (   693 PWs)   bands (ev):

   -65.1964 -31.5683 -31.4537 -31.3491  17.2469  17.6769  20.1411  21.2095
    22.3105  26.0228  33.1455  33.5725

          k =-0.1000 0.8000-0.2000 (   695 PWs)   bands (ev):

   -65.1872 -31.5835 -31.4931 -31.3475  17.3406  17.4809  20.0391  21.5802
    22.5075  28.4263  30.2045  32.7928

          k = 0.5000-0.5000 0.5000 (   688 PWs)   bands (ev):

   -65.2338 -31.4018 -31.4018 -31.4018  18.0141  18.0141  18.0141  22.2710
    22.2710  30.4233  30.4233  30.4233

          k = 0.0000 0.0000 0.7000 (   699 PWs)   bands (ev):

   -65.1921 -31.5123 -31.4401 -31.4401  17.0337  17.6219  21.0750  21.0750
    21.9632  25.5130  34.7082  34.7082

          k = 0.0000-0.1000 0.8000 (   699 PWs)   bands (ev):

   -65.1746 -31.5614 -31.4805 -31.4485  17.0271  17.1502  21.3202  21.5530
    22.5692  27.9931  31.6259  33.2476

          k =-0.1000 0.9000-0.1000 (   697 PWs)   bands (ev):

   -65.1663 -31.5390 -31.5390 -31.4572  16.9245  16.9245  21.4379  22.4095
    22.4095  30.5190  30.5190  31.3344

          k = 0.0000 0.0000 0.9000 (   691 PWs)   bands (ev):

   -65.1583 -31.5329 -31.5217 -31.5217  16.7117  16.7379  22.3702  22.3702
    22.5447  29.9549  31.6126  31.6126

     the Fermi energy is    20.3480 ev

!    total energy              =    -254.36520216 Ry
     estimated scf accuracy    <          4.9E-09 Ry
     smearing contrib. (-TS)   =       0.00005631 Ry
     internal energy E=F+TS    =    -254.36525847 Ry

     The total energy is F=E-TS. E is the sum of the following terms:
     one-electron contribution =    -102.78478015 Ry
     hartree contribution      =      62.46127501 Ry
     xc contribution           =     -34.87949119 Ry
     ewald contribution        =    -179.16226213 Ry

     total magnetization       =     2.00 Bohr mag/cell
     absolute magnetization    =     2.09 Bohr mag/cell

     convergence has been achieved in  10 iterations

     Writing output data file ./tempdir/fe.save/

     init_run     :      0.71s CPU      0.75s WALL (       1 calls)
     electrons    :      6.92s CPU      7.19s WALL (       1 calls)

     Called by init_run:
     wfcinit      :      0.16s CPU      0.17s WALL (       1 calls)
     potinit      :      0.09s CPU      0.10s WALL (       1 calls)
     hinit0       :      0.39s CPU      0.40s WALL (       1 calls)

     Called by electrons:
     c_bands      :      3.76s CPU      3.78s WALL (      10 calls)
     sum_band     :      1.67s CPU      1.76s WALL (      10 calls)
     v_of_rho     :      0.89s CPU      0.95s WALL (      11 calls)
     newd         :      0.61s CPU      0.72s WALL (      11 calls)
     mix_rho      :      0.06s CPU      0.06s WALL (      10 calls)

     Called by c_bands:
     init_us_2    :      0.11s CPU      0.11s WALL (     924 calls)
     cegterg      :      3.19s CPU      3.21s WALL (     440 calls)

     Called by *egterg:
     cdiaghg      :      0.15s CPU      0.16s WALL (    1500 calls)
     h_psi        :      2.84s CPU      2.86s WALL (    1544 calls)
     s_psi        :      0.05s CPU      0.05s WALL (    1544 calls)
     g_psi        :      0.02s CPU      0.02s WALL (    1060 calls)

     Called by h_psi:
     h_psi:calbec :      0.06s CPU      0.06s WALL (    1544 calls)
     vloc_psi     :      2.71s CPU      2.73s WALL (    1544 calls)
     add_vuspsi   :      0.05s CPU      0.05s WALL (    1544 calls)

     General routines
     calbec       :      0.08s CPU      0.09s WALL (    1984 calls)
     fft          :      0.38s CPU      0.39s WALL (     269 calls)
     ffts         :      0.01s CPU      0.01s WALL (      42 calls)
     fftw         :      2.92s CPU      2.94s WALL (   31658 calls)
     interpolate  :      0.04s CPU      0.04s WALL (      22 calls)

     Parallel routines

     PWSCF        :      7.70s CPU      8.03s WALL


   This run was terminated on:   0:18:32  19Apr2021            

=------------------------------------------------------------------------------=
   JOB DONE.
=------------------------------------------------------------------------------=
