
     Program PWSCF v.6.7GPU starts on 19Apr2021 at  0:18:32 

     This program is part of the open-source Quantum ESPRESSO suite
     for quantum simulation of materials; please cite
         "P. Giannozzi et al., J. Phys.:Condens. Matter 21 395502 (2009);
         "P. Giannozzi et al., J. Phys.:Condens. Matter 29 465901 (2017);
         "P. Giannozzi et al., J. Chem. Phys. 152 154105 (2020);
          URL http://www.quantum-espresso.org", 
     in publications or presentations arising from this work. More details at
     http://www.quantum-espresso.org/quote

     Parallel version (MPI & OpenMP), running on       2 processor cores
     Number of MPI processes:                 2
     Threads/MPI process:                     1

     MPI processes distributed on     1 nodes
     K-points division:     npool     =       2
     Reading input from fe.scf.5.3.in

     Current dimensions of program PWSCF are:
     Max number of different atomic species (ntypx) = 10
     Max number of k-points (npk) =  40000
     Max angular momentum in pseudopotentials (lmaxx) =  3

     Subspace diagonalization in iterative solution of the eigenvalue problem:
     a serial algorithm will be used


     G-vector sticks info
     --------------------
     sticks:   dense  smooth     PW     G-vecs:    dense   smooth      PW
     Sum        1347     449    137                31173     5895    1055

     Using Slab Decomposition



     bravais-lattice index     =            3
     lattice parameter (alat)  =       5.3000  a.u.
     unit-cell volume          =      74.4385 (a.u.)^3
     number of atoms/cell      =            1
     number of atomic types    =            1
     number of electrons       =        16.00
     number of Kohn-Sham states=           12
     kinetic-energy cutoff     =      70.0000  Ry
     charge density cutoff     =     850.0000  Ry
     scf convergence threshold =      1.0E-08
     mixing beta               =       0.7000
     number of iterations used =            8  plain     mixing
     Exchange-correlation= PBE
                           (   1   4   3   4   0   0   0)

     celldm(1)=   5.300000  celldm(2)=   0.000000  celldm(3)=   0.000000
     celldm(4)=   0.000000  celldm(5)=   0.000000  celldm(6)=   0.000000

     crystal axes: (cart. coord. in units of alat)
               a(1) = (   0.500000   0.500000   0.500000 )  
               a(2) = (  -0.500000   0.500000   0.500000 )  
               a(3) = (  -0.500000  -0.500000   0.500000 )  

     reciprocal axes: (cart. coord. in units 2 pi/alat)
               b(1) = (  1.000000  0.000000  1.000000 )  
               b(2) = ( -1.000000  1.000000  0.000000 )  
               b(3) = (  0.000000 -1.000000  1.000000 )  


     PseudoPot. # 1 for Fe read from file:
     /home/pietro/repositories/materials-for-max-qe2021-online-school/pseudo/Fe.pbe-spn-rrkjus_psl.0.2.1.UPF
     MD5 check sum: f9af58635850a145d9bd408d58feeb93
     Pseudo is Ultrasoft + core correction, Zval = 16.0
     Generated using "atomic" code by A. Dal Corso  v.5.0.2 svn rev. 9415
     Using radial grid of 1191 points,  6 beta functions with: 
                l(1) =   0
                l(2) =   0
                l(3) =   1
                l(4) =   1
                l(5) =   2
                l(6) =   2
     Q(r) pseudized with 0 coefficients 


     atomic species   valence    mass     pseudopotential
        Fe            16.00    55.84500     Fe( 1.00)

     Starting magnetic structure 
     atomic species   magnetization
        Fe           0.700

     48 Sym. Ops., with inversion, found



   Cartesian axes

     site n.     atom                  positions (alat units)
         1           Fe  tau(   1) = (   0.0000000   0.0000000   0.0000000  )

     number of k points=    44  Marzari-Vanderbilt smearing, width (Ry)=  0.0200
                       cart. coord. in units 2pi/alat
        k(    1) = (   0.0000000   0.0000000   0.1000000), wk =   0.0060000
        k(    2) = (   0.0000000  -0.1000000   0.2000000), wk =   0.0240000
        k(    3) = (   0.0000000  -0.2000000   0.3000000), wk =   0.0240000
        k(    4) = (   0.0000000  -0.3000000   0.4000000), wk =   0.0240000
        k(    5) = (   0.0000000  -0.4000000   0.5000000), wk =   0.0240000
        k(    6) = (  -0.1000000   0.1000000   0.1000000), wk =   0.0080000
        k(    7) = (  -0.1000000  -0.1000000   0.3000000), wk =   0.0240000
        k(    8) = (  -0.1000000  -0.2000000   0.4000000), wk =   0.0480000
        k(    9) = (  -0.1000000  -0.3000000   0.5000000), wk =   0.0480000
        k(   10) = (  -0.1000000   0.6000000  -0.4000000), wk =   0.0240000
        k(   11) = (  -0.2000000   0.2000000   0.1000000), wk =   0.0240000
        k(   12) = (  -0.2000000  -0.2000000   0.5000000), wk =   0.0240000
        k(   13) = (  -0.2000000   0.7000000  -0.4000000), wk =   0.0480000
        k(   14) = (  -0.3000000   0.3000000   0.1000000), wk =   0.0240000
        k(   15) = (  -0.3000000   0.2000000   0.2000000), wk =   0.0240000
        k(   16) = (  -0.3000000   0.7000000  -0.3000000), wk =   0.0080000
        k(   17) = (  -0.4000000   0.4000000   0.1000000), wk =   0.0240000
        k(   18) = (  -0.4000000   0.3000000   0.2000000), wk =   0.0480000
        k(   19) = (   0.5000000  -0.5000000   0.1000000), wk =   0.0120000
        k(   20) = (   0.5000000  -0.6000000   0.2000000), wk =   0.0480000
        k(   21) = (   0.5000000  -0.7000000   0.3000000), wk =   0.0240000
        k(   22) = (   0.4000000  -0.6000000   0.3000000), wk =   0.0240000
        k(   23) = (   0.0000000   0.0000000   0.3000000), wk =   0.0060000
        k(   24) = (   0.0000000  -0.1000000   0.4000000), wk =   0.0240000
        k(   25) = (   0.0000000  -0.2000000   0.5000000), wk =   0.0240000
        k(   26) = (   0.0000000  -0.3000000   0.6000000), wk =   0.0240000
        k(   27) = (  -0.1000000  -0.1000000   0.5000000), wk =   0.0240000
        k(   28) = (  -0.1000000  -0.2000000   0.6000000), wk =   0.0480000
        k(   29) = (  -0.1000000   0.7000000  -0.3000000), wk =   0.0240000
        k(   30) = (  -0.2000000   0.8000000  -0.3000000), wk =   0.0240000
        k(   31) = (  -0.3000000   0.3000000   0.3000000), wk =   0.0080000
        k(   32) = (   0.6000000  -0.6000000   0.3000000), wk =   0.0240000
        k(   33) = (   0.5000000  -0.5000000   0.3000000), wk =   0.0120000
        k(   34) = (   0.5000000  -0.6000000   0.4000000), wk =   0.0240000
        k(   35) = (   0.0000000   0.0000000   0.5000000), wk =   0.0060000
        k(   36) = (   0.0000000  -0.1000000   0.6000000), wk =   0.0240000
        k(   37) = (   0.0000000  -0.2000000   0.7000000), wk =   0.0240000
        k(   38) = (  -0.1000000  -0.1000000   0.7000000), wk =   0.0240000
        k(   39) = (  -0.1000000   0.8000000  -0.2000000), wk =   0.0240000
        k(   40) = (   0.5000000  -0.5000000   0.5000000), wk =   0.0020000
        k(   41) = (   0.0000000   0.0000000   0.7000000), wk =   0.0060000
        k(   42) = (   0.0000000  -0.1000000   0.8000000), wk =   0.0240000
        k(   43) = (  -0.1000000   0.9000000  -0.1000000), wk =   0.0080000
        k(   44) = (   0.0000000   0.0000000   0.9000000), wk =   0.0060000

     Dense  grid:    31173 G-vectors     FFT dimensions: (  45,  45,  45)

     Smooth grid:     5895 G-vectors     FFT dimensions: (  25,  25,  25)

     Estimated max dynamical RAM per process >      85.81 MB

     Estimated total dynamical RAM >     156.39 MB

     Check: negative core charge=   -0.000010
     Generating pointlists ...
     new r_m :   0.3572 (alat units)  1.8933 (a.u.) for type    1

     Initial potential from superposition of free atoms

     starting charge   15.99956, renormalised to   16.00000
     Starting wfcs are   13 randomized atomic wfcs

     total cpu time spent up to now is        0.9 secs

     Self-consistent Calculation

     iteration #  1     ecut=    70.00 Ry     beta= 0.70
     Davidson diagonalization with overlap
     ethr =  1.00E-02,  avg # of iterations =  3.1

     negative rho (up, down):  0.000E+00 5.499E-05

     total cpu time spent up to now is        1.8 secs

     total energy              =    -254.06490215 Ry
     estimated scf accuracy    <       1.50818913 Ry

     total magnetization       =     3.85 Bohr mag/cell
     absolute magnetization    =     3.87 Bohr mag/cell

     iteration #  2     ecut=    70.00 Ry     beta= 0.70
     Davidson diagonalization with overlap
     ethr =  9.43E-03,  avg # of iterations =  1.3

     negative rho (up, down):  0.000E+00 6.139E-05

     total cpu time spent up to now is        2.6 secs

     total energy              =    -254.26932369 Ry
     estimated scf accuracy    <       0.34598696 Ry

     total magnetization       =     3.00 Bohr mag/cell
     absolute magnetization    =     3.15 Bohr mag/cell

     iteration #  3     ecut=    70.00 Ry     beta= 0.70
     Davidson diagonalization with overlap
     ethr =  2.16E-03,  avg # of iterations =  2.0

     negative rho (up, down):  0.000E+00 6.281E-05

     total cpu time spent up to now is        3.5 secs

     total energy              =    -254.29720114 Ry
     estimated scf accuracy    <       0.42820127 Ry

     total magnetization       =     2.43 Bohr mag/cell
     absolute magnetization    =     2.57 Bohr mag/cell

     iteration #  4     ecut=    70.00 Ry     beta= 0.70
     Davidson diagonalization with overlap
     ethr =  2.16E-03,  avg # of iterations =  2.0

     negative rho (up, down):  0.000E+00 4.261E-05

     total cpu time spent up to now is        4.3 secs

     total energy              =    -254.36650974 Ry
     estimated scf accuracy    <       0.00169423 Ry

     total magnetization       =     2.27 Bohr mag/cell
     absolute magnetization    =     2.42 Bohr mag/cell

     iteration #  5     ecut=    70.00 Ry     beta= 0.70
     Davidson diagonalization with overlap
     ethr =  1.06E-05,  avg # of iterations =  6.0

     negative rho (up, down):  0.000E+00 3.812E-05

     total cpu time spent up to now is        6.0 secs

     total energy              =    -254.36883295 Ry
     estimated scf accuracy    <       0.00054916 Ry

     total magnetization       =     2.21 Bohr mag/cell
     absolute magnetization    =     2.33 Bohr mag/cell

     iteration #  6     ecut=    70.00 Ry     beta= 0.70
     Davidson diagonalization with overlap
     ethr =  3.43E-06,  avg # of iterations =  2.1

     negative rho (up, down):  0.000E+00 3.290E-05

     total cpu time spent up to now is        6.9 secs

     total energy              =    -254.36899973 Ry
     estimated scf accuracy    <       0.00018315 Ry

     total magnetization       =     2.19 Bohr mag/cell
     absolute magnetization    =     2.30 Bohr mag/cell

     iteration #  7     ecut=    70.00 Ry     beta= 0.70
     Davidson diagonalization with overlap
     ethr =  1.14E-06,  avg # of iterations =  1.6

     negative rho (up, down):  0.000E+00 3.381E-05

     total cpu time spent up to now is        7.7 secs

     total energy              =    -254.36909371 Ry
     estimated scf accuracy    <       0.00000589 Ry

     total magnetization       =     2.16 Bohr mag/cell
     absolute magnetization    =     2.27 Bohr mag/cell

     iteration #  8     ecut=    70.00 Ry     beta= 0.70
     Davidson diagonalization with overlap
     ethr =  3.68E-08,  avg # of iterations =  3.4

     negative rho (up, down):  0.000E+00 3.376E-05

     total cpu time spent up to now is        8.7 secs

     total energy              =    -254.36909339 Ry
     estimated scf accuracy    <       0.00001011 Ry

     total magnetization       =     2.16 Bohr mag/cell
     absolute magnetization    =     2.27 Bohr mag/cell

     iteration #  9     ecut=    70.00 Ry     beta= 0.70
     Davidson diagonalization with overlap
     ethr =  3.68E-08,  avg # of iterations =  2.0

     negative rho (up, down):  0.000E+00 3.359E-05

     total cpu time spent up to now is        9.5 secs

     total energy              =    -254.36909585 Ry
     estimated scf accuracy    <       0.00000011 Ry

     total magnetization       =     2.16 Bohr mag/cell
     absolute magnetization    =     2.26 Bohr mag/cell

     iteration # 10     ecut=    70.00 Ry     beta= 0.70
     Davidson diagonalization with overlap
     ethr =  7.11E-10,  avg # of iterations =  4.1

     negative rho (up, down):  0.000E+00 3.352E-05

     total cpu time spent up to now is       10.5 secs

     total energy              =    -254.36909599 Ry
     estimated scf accuracy    <       0.00000002 Ry

     total magnetization       =     2.16 Bohr mag/cell
     absolute magnetization    =     2.26 Bohr mag/cell

     iteration # 11     ecut=    70.00 Ry     beta= 0.70
     Davidson diagonalization with overlap
     ethr =  1.21E-10,  avg # of iterations =  1.6

     negative rho (up, down):  0.000E+00 3.350E-05

     Magnetic moment per site  (integrated on atomic sphere of radius R)
     atom   1 (R=0.357)  charge= 14.3698  magn=  2.1964

     total cpu time spent up to now is       11.3 secs

     End of self-consistent calculation

 ------ SPIN UP ------------


          k = 0.0000 0.0000 0.1000 (   715 PWs)   bands (ev):

   -69.2210 -35.0118 -35.0037 -35.0037  10.4504  16.5969  16.5969  16.6583
    17.7698  17.9074  42.9037  43.9481

          k = 0.0000-0.1000 0.2000 (   723 PWs)   bands (ev):

   -69.2050 -35.0931 -35.0320 -35.0063  11.2627  16.3991  16.5518  17.0905
    17.5602  17.9743  39.6758  42.3726

          k = 0.0000-0.2000 0.3000 (   729 PWs)   bands (ev):

   -69.1789 -35.2270 -35.0775 -35.0058  12.6356  16.0616  16.4122  17.5804
    17.8762  18.0552  35.0996  40.1982

          k = 0.0000-0.3000 0.4000 (   739 PWs)   bands (ev):

   -69.1528 -35.3598 -35.1227 -35.0055  13.7029  15.7378  16.8566  17.8493
    18.3012  18.7507  30.5988  38.4705

          k = 0.0000-0.4000 0.5000 (   737 PWs)   bands (ev):

   -69.1366 -35.4403 -35.1504 -35.0053  13.8869  15.5441  17.5410  17.9100
    19.3493  19.5311  27.1576  37.5268

          k =-0.1000 0.1000 0.1000 (   721 PWs)   bands (ev):

   -69.2129 -35.0678 -35.0044 -35.0044  10.8643  16.4602  16.4602  17.0077
    17.8101  17.8101  41.6090  41.6090

          k =-0.1000-0.1000 0.3000 (   728 PWs)   bands (ev):

   -69.1842 -35.1846 -35.0635 -35.0257  12.3548  16.3016  16.3201  17.3698
    17.6805  18.1323  37.2631  38.6224

          k =-0.1000-0.2000 0.4000 (   734 PWs)   bands (ev):

   -69.1585 -35.3016 -35.1156 -35.0311  13.6657  15.9173  16.2492  17.5260
    18.2239  18.7997  33.0957  36.2917

          k =-0.1000-0.3000 0.5000 (   740 PWs)   bands (ev):

   -69.1376 -35.3955 -35.1611 -35.0318  14.1971  15.7243  16.5847  17.7782
    18.6339  20.2712  28.8971  35.0235

          k =-0.1000 0.6000-0.4000 (   740 PWs)   bands (ev):

   -69.1296 -35.4308 -35.1788 -35.0318  14.2001  15.6595  16.8365  17.8080
    18.9655  21.5642  26.6212  34.5643

          k =-0.2000 0.2000 0.1000 (   723 PWs)   bands (ev):

   -69.1915 -35.1776 -35.0419 -35.0050  12.0086  16.1400  16.2874  17.6955
    17.7289  17.8922  37.4313  39.7196

          k =-0.2000-0.2000 0.5000 (   740 PWs)   bands (ev):

   -69.1380 -35.3599 -35.1783 -35.0475  14.5823  15.5288  16.2513  17.6662
    18.3914  20.5377  31.2135  32.0826

          k =-0.2000 0.7000-0.4000 (   739 PWs)   bands (ev):

   -69.1253 -35.3830 -35.2344 -35.0522  14.8047  15.5871  16.1280  17.9023
    18.5620  22.9075  27.6718  30.8803

          k =-0.3000 0.3000 0.1000 (   741 PWs)   bands (ev):

   -69.1651 -35.3054 -35.0955 -35.0066  13.3952  15.7885  16.3416  17.7895
    17.9778  18.6996  32.8244  37.9847

          k =-0.3000 0.2000 0.2000 (   727 PWs)   bands (ev):

   -69.1698 -35.2784 -35.0701 -35.0265  13.2997  15.8797  15.9253  17.7362
    17.9921  18.7562  35.1061  36.0609

          k =-0.3000 0.7000-0.3000 (   733 PWs)   bands (ev):

   -69.1206 -35.3212 -35.3212 -35.0575  15.3168  15.5780  15.5780  18.2711
    18.2711  25.9283  25.9283  28.6465

          k =-0.4000 0.4000 0.1000 (   737 PWs)   bands (ev):

   -69.1437 -35.4052 -35.1395 -35.0073  13.9533  15.5264  17.4219  17.9517
    18.0480  19.8558  28.6871  36.7770

          k =-0.4000 0.3000 0.2000 (   740 PWs)   bands (ev):

   -69.1480 -35.3594 -35.1307 -35.0356  14.3411  15.5848  16.1448  17.8490
    18.1031  20.1836  31.0314  34.1904

          k = 0.5000-0.5000 0.1000 (   744 PWs)   bands (ev):

   -69.1355 -35.4430 -35.1567 -35.0082  13.9706  15.4302  17.9644  18.0765
    18.2443  20.7690  26.5678  36.3439

          k = 0.5000-0.6000 0.2000 (   737 PWs)   bands (ev):

   -69.1345 -35.4009 -35.1773 -35.0389  14.4381  15.4476  16.9079  17.9727
    18.2121  21.9756  27.4074  33.3467

          k = 0.5000-0.7000 0.3000 (   740 PWs)   bands (ev):

   -69.1342 -35.3660 -35.1985 -35.0571  14.9171  15.4865  16.1217  17.9606
    18.1996  22.3750  29.3507  30.4424

          k = 0.4000-0.6000 0.3000 (   736 PWs)   bands (ev):

   -69.1289 -35.3471 -35.2478 -35.0628  14.9668  15.5386  16.1798  18.0603
    18.2107  24.4998  26.8145  29.6909

          k = 0.0000 0.0000 0.3000 (   723 PWs)   bands (ev):

   -69.1897 -35.1129 -35.0608 -35.0608  12.0180  16.6588  16.6588  17.0331
    17.1057  18.2023  39.1458  41.0205

          k = 0.0000-0.1000 0.4000 (   732 PWs)   bands (ev):

   -69.1649 -35.2219 -35.1074 -35.0719  13.2569  16.2764  16.4968  17.1159
    17.7825  18.4989  35.6578  38.8879

          k = 0.0000-0.2000 0.5000 (   738 PWs)   bands (ev):

   -69.1401 -35.3431 -35.1536 -35.0689  14.1918  15.9834  16.2321  17.5209
    18.6707  19.4193  31.1208  37.0941

          k = 0.0000-0.3000 0.6000 (   737 PWs)   bands (ev):

   -69.1247 -35.4176 -35.1822 -35.0661  14.3050  16.0668  16.1878  17.5945
    19.2927  21.3627  27.4114  36.0136

          k =-0.1000-0.1000 0.5000 (   731 PWs)   bands (ev):

   -69.1410 -35.2990 -35.1617 -35.0957  14.2518  15.7072  16.6267  17.2782
    18.3177  19.4233  33.6364  34.3845

          k =-0.1000-0.2000 0.6000 (   742 PWs)   bands (ev):

   -69.1217 -35.3713 -35.2136 -35.0975  14.6859  15.4589  16.4145  17.6350
    18.8284  21.4855  29.5661  32.7773

          k =-0.1000 0.7000-0.3000 (   742 PWs)   bands (ev):

   -69.1143 -35.3992 -35.2339 -35.0967  14.6305  15.6257  16.2247  17.7304
    19.1088  23.4553  26.8532  32.2818

          k =-0.2000 0.8000-0.3000 (   745 PWs)   bands (ev):

   -69.1103 -35.3610 -35.2900 -35.1034  15.0763  15.1296  16.1364  18.1716
    18.7278  24.3950  27.9934  29.3543

          k =-0.3000 0.3000 0.3000 (   736 PWs)   bands (ev):

   -69.1520 -35.3440 -35.0787 -35.0787  14.5764  15.5788  15.5788  17.9653
    17.9653  20.2130  33.4350  33.4350

          k = 0.6000-0.6000 0.3000 (   740 PWs)   bands (ev):

   -69.1376 -35.3631 -35.1546 -35.0855  15.0144  15.4141  16.0410  18.0269
    18.0705  22.1838  29.5484  32.3779

          k = 0.5000-0.5000 0.3000 (   740 PWs)   bands (ev):

   -69.1321 -35.3571 -35.1964 -35.0884  14.9197  15.3639  16.5140  18.0663
    18.0978  23.9814  26.9238  32.0148

          k = 0.5000-0.6000 0.4000 (   738 PWs)   bands (ev):

   -69.1312 -35.3134 -35.2149 -35.1230  15.2387  15.5542  15.9434  18.0886
    18.1114  24.8277  28.1718  29.4137

          k = 0.0000 0.0000 0.5000 (   731 PWs)   bands (ev):

   -69.1422 -35.2345 -35.1557 -35.1557  14.1094  15.8434  17.0610  17.0610
    17.8468  19.2129  36.3746  36.3746

          k = 0.0000-0.1000 0.6000 (   739 PWs)   bands (ev):

   -69.1195 -35.3174 -35.2039 -35.1690  14.6058  15.2532  17.1012  17.4554
    18.5597  20.7698  32.0849  34.3758

          k = 0.0000-0.2000 0.7000 (   742 PWs)   bands (ev):

   -69.1054 -35.3810 -35.2334 -35.1641  14.5798  15.0960  17.0128  17.6272
    19.2019  23.3457  28.0578  33.1985

          k =-0.1000-0.1000 0.7000 (   745 PWs)   bands (ev):

   -69.1020 -35.3481 -35.2638 -35.1855  14.6810  14.7765  17.1785  18.0290
    18.8968  23.1591  30.4160  30.9582

          k =-0.1000 0.8000-0.2000 (   736 PWs)   bands (ev):

   -69.0952 -35.3596 -35.2930 -35.1842  14.5615  14.7190  17.1198  18.3194
    19.0644  25.7521  27.4333  30.2037

          k = 0.5000-0.5000 0.5000 (   736 PWs)   bands (ev):

   -69.1300 -35.2209 -35.2209 -35.2209  15.6038  15.6038  15.6038  18.1110
    18.1110  27.7692  27.7692  27.7692

          k = 0.0000 0.0000 0.7000 (   735 PWs)   bands (ev):

   -69.0988 -35.3058 -35.2534 -35.2534  14.4981  14.6800  17.9649  17.9649
    18.6086  22.6782  32.1867  32.1867

          k = 0.0000-0.1000 0.8000 (   730 PWs)   bands (ev):

   -69.0859 -35.3438 -35.2843 -35.2593  14.2995  14.3548  18.1447  18.3479
    19.1131  25.4182  29.0998  30.8731

          k =-0.1000 0.9000-0.1000 (   730 PWs)   bands (ev):

   -69.0798 -35.3279 -35.3279 -35.2663  14.1664  14.1664  18.2534  18.9992
    18.9992  28.0893  28.0893  28.9532

          k = 0.0000 0.0000 0.9000 (   731 PWs)   bands (ev):

   -69.0739 -35.3230 -35.3159 -35.3159  13.9815  13.9844  18.9716  18.9716
    19.0895  27.6729  29.4394  29.4394

 ------ SPIN DOWN ----------


          k = 0.0000 0.0000 0.1000 (   715 PWs)   bands (ev):

   -66.5009 -32.3203 -32.3109 -32.3109  10.6340  18.4607  18.4607  18.5357
    20.5130  20.6903  42.8246  43.8064

          k = 0.0000-0.1000 0.2000 (   723 PWs)   bands (ev):

   -66.4833 -32.4110 -32.3421 -32.3139  11.4581  18.2240  18.3904  19.0052
    20.2144  20.7664  39.9894  42.4645

          k = 0.0000-0.2000 0.3000 (   729 PWs)   bands (ev):

   -66.4547 -32.5603 -32.3921 -32.3136  12.9200  17.8249  18.1545  19.8685
    20.0978  20.8462  35.7598  40.3428

          k = 0.0000-0.3000 0.4000 (   739 PWs)   bands (ev):

   -66.4261 -32.7080 -32.4417 -32.3134  14.4381  17.4459  18.1856  20.2605
    20.8442  20.9664  31.5357  38.5917

          k = 0.0000-0.4000 0.5000 (   737 PWs)   bands (ev):

   -66.4083 -32.7975 -32.4721 -32.3132  15.1038  17.2209  18.9474  20.3974
    21.2578  21.5240  28.4365  37.6163

          k =-0.1000 0.1000 0.1000 (   721 PWs)   bands (ev):

   -66.4920 -32.3826 -32.3118 -32.3118  11.0521  18.3021  18.3021  18.9108
    20.5568  20.5568  41.7443  41.7443

          k =-0.1000-0.1000 0.3000 (   728 PWs)   bands (ev):

   -66.4605 -32.5129 -32.3770 -32.3354  12.5955  18.0918  18.1398  19.6319
    19.8843  20.9247  37.7700  39.1001

          k =-0.1000-0.2000 0.4000 (   734 PWs)   bands (ev):

   -66.4323 -32.6431 -32.4344 -32.3415  14.1421  17.6850  17.9040  19.9131
    20.5750  21.1433  33.8677  36.8267

          k =-0.1000-0.3000 0.5000 (   740 PWs)   bands (ev):

   -66.4094 -32.7474 -32.4846 -32.3423  15.2805  17.4100  18.0220  20.1699
    21.0316  22.0763  29.9437  35.5622

          k =-0.1000 0.6000-0.4000 (   740 PWs)   bands (ev):

   -66.4007 -32.7867 -32.5040 -32.3423  15.5284  17.3284  18.3281  20.2544
    21.2308  22.9319  27.9437  35.0944

          k =-0.2000 0.2000 0.1000 (   723 PWs)   bands (ev):

   -66.4686 -32.5050 -32.3531 -32.3126  12.2275  17.9233  18.0822  19.6658
    20.3598  20.6566  37.9200  39.9941

          k =-0.2000-0.2000 0.5000 (   740 PWs)   bands (ev):

   -66.4098 -32.7075 -32.5043 -32.3594  15.4721  17.2631  17.8000  20.0169
    20.8948  22.3601  32.0955  32.7854

          k =-0.2000 0.7000-0.4000 (   739 PWs)   bands (ev):

   -66.3959 -32.7331 -32.5668 -32.3645  16.1694  17.2147  17.6536  20.2745
    20.9367  24.2829  28.7658  31.6322

          k =-0.3000 0.3000 0.1000 (   741 PWs)   bands (ev):

   -66.4396 -32.6473 -32.4120 -32.3145  13.8306  17.5043  17.8858  20.3589
    20.6813  20.7741  33.6013  38.2658

          k =-0.3000 0.2000 0.2000 (   727 PWs)   bands (ev):

   -66.4447 -32.6171 -32.3845 -32.3364  13.6110  17.6172  17.6184  20.3572
    20.6713  20.7935  35.7092  36.5985

          k =-0.3000 0.7000-0.3000 (   733 PWs)   bands (ev):

   -66.3908 -32.6640 -32.6640 -32.3703  16.8252  17.1432  17.1432  20.6300
    20.6300  27.0497  27.0497  29.5512

          k =-0.4000 0.4000 0.1000 (   737 PWs)   bands (ev):

   -66.4160 -32.7584 -32.4604 -32.3154  14.9870  17.1930  18.3819  20.4748
    20.8778  21.7038  29.7640  37.0172

          k =-0.4000 0.3000 0.2000 (   740 PWs)   bands (ev):

   -66.4208 -32.7072 -32.4515 -32.3466  15.0913  17.2348  17.5356  20.4359
    20.8751  22.0047  31.8747  34.7711

          k = 0.5000-0.5000 0.1000 (   744 PWs)   bands (ev):

   -66.4070 -32.8005 -32.4793 -32.3164  15.2359  17.0793  19.0547  20.5260
    20.9212  22.2684  27.9273  36.5623

          k = 0.5000-0.6000 0.2000 (   737 PWs)   bands (ev):

   -66.4060 -32.7536 -32.5031 -32.3503  15.6944  17.0531  18.0665  20.5589
    20.9378  23.3851  28.5647  33.9178

          k = 0.5000-0.7000 0.3000 (   740 PWs)   bands (ev):

   -66.4056 -32.7144 -32.5275 -32.3702  16.1303  17.0313  17.4217  20.5562
    20.9112  23.8577  30.2597  31.2078

          k = 0.4000-0.6000 0.3000 (   736 PWs)   bands (ev):

   -66.3998 -32.6934 -32.5824 -32.3766  16.3681  17.0381  17.5032  20.6732
    20.8687  25.6382  27.9338  30.4905

          k = 0.0000 0.0000 0.3000 (   723 PWs)   bands (ev):

   -66.4666 -32.4339 -32.3738 -32.3738  12.2380  18.4802  18.4802  19.0286
    19.5616  21.0087  39.4558  41.4968

          k = 0.0000-0.1000 0.4000 (   732 PWs)   bands (ev):

   -66.4394 -32.5547 -32.4252 -32.3865  13.6036  18.2525  18.2848  19.2982
    19.7643  21.2057  36.3202  39.3585

          k = 0.0000-0.2000 0.5000 (   738 PWs)   bands (ev):

   -66.4122 -32.6891 -32.4761 -32.3834  15.0159  17.7717  17.9763  19.6929
    20.7526  21.6383  32.0176  37.7248

          k = 0.0000-0.3000 0.6000 (   737 PWs)   bands (ev):

   -66.3953 -32.7717 -32.5074 -32.3804  15.6545  17.7842  17.8130  19.8769
    21.4602  22.8144  28.6041  36.6120

          k =-0.1000-0.1000 0.5000 (   731 PWs)   bands (ev):

   -66.4133 -32.6401 -32.4855 -32.4128  14.9209  17.6895  18.3753  19.3381
    20.4410  21.6765  34.4394  35.0289

          k =-0.1000-0.2000 0.6000 (   742 PWs)   bands (ev):

   -66.3921 -32.7199 -32.5430 -32.4146  15.9367  17.2287  18.1583  19.7555
    21.0088  23.0934  30.5232  33.4798

          k =-0.1000 0.7000-0.3000 (   742 PWs)   bands (ev):

   -66.3840 -32.7506 -32.5654 -32.4138  16.1795  17.2819  17.9485  19.8879
    21.2856  24.6518  28.0491  32.9709

          k =-0.2000 0.8000-0.3000 (   745 PWs)   bands (ev):

   -66.3796 -32.7078 -32.6282 -32.4208  16.6881  16.8400  17.8098  20.2930
    20.8993  25.6186  29.0200  30.1634

          k =-0.3000 0.3000 0.3000 (   736 PWs)   bands (ev):

   -66.4252 -32.6899 -32.3944 -32.3944  15.0518  17.2079  17.2079  20.7017
    20.7017  22.0424  34.0694  34.0694

          k = 0.6000-0.6000 0.3000 (   740 PWs)   bands (ev):

   -66.4093 -32.7112 -32.4786 -32.4023  16.1347  16.9661  17.2544  20.7423
    20.8910  23.6911  30.4225  33.0123

          k = 0.5000-0.5000 0.3000 (   740 PWs)   bands (ev):

   -66.4033 -32.7047 -32.5250 -32.4056  16.2417  16.8879  17.6789  20.7763
    20.9495  25.1084  28.0728  32.6454

          k = 0.5000-0.6000 0.4000 (   738 PWs)   bands (ev):

   -66.4022 -32.6559 -32.5461 -32.4439  16.6405  16.9612  17.1792  20.8703
    20.9368  25.9760  29.0779  30.2285

          k = 0.0000 0.0000 0.5000 (   731 PWs)   bands (ev):

   -66.4146 -32.5693 -32.4786 -32.4786  14.7099  18.0619  18.8686  18.8686
    19.8490  21.6060  37.0226  37.0226

          k = 0.0000-0.1000 0.6000 (   739 PWs)   bands (ev):

   -66.3897 -32.6600 -32.5317 -32.4938  15.7209  17.2597  18.9151  19.3750
    20.6297  22.5300  32.8806  35.0001

          k = 0.0000-0.2000 0.7000 (   742 PWs)   bands (ev):

   -66.3743 -32.7300 -32.5644 -32.4884  16.2028  16.8442  18.8174  19.6067
    21.3581  24.5497  29.0566  33.7703

          k =-0.1000-0.1000 0.7000 (   745 PWs)   bands (ev):

   -66.3706 -32.6933 -32.5984 -32.5117  16.2061  16.6828  18.9873  19.9862
    21.0155  24.4065  31.2497  31.6270

          k =-0.1000 0.8000-0.2000 (   736 PWs)   bands (ev):

   -66.3633 -32.7056 -32.6310 -32.5102  16.3525  16.4694  18.8885  20.3306
    21.1983  26.7200  28.3831  30.8902

          k = 0.5000-0.5000 0.5000 (   736 PWs)   bands (ev):

   -66.4009 -32.5530 -32.5530 -32.5530  16.9559  16.9559  16.9559  20.9671
    20.9671  28.6698  28.6698  28.6698

          k = 0.0000 0.0000 0.7000 (   735 PWs)   bands (ev):

   -66.3671 -32.6466 -32.5867 -32.5867  16.0025  16.6415  19.8597  19.8597
    20.6978  23.9147  32.7539  32.7539

          k = 0.0000-0.1000 0.8000 (   730 PWs)   bands (ev):

   -66.3532 -32.6877 -32.6208 -32.5935  16.0500  16.1897  20.0915  20.3032
    21.2587  26.2897  29.7773  31.3561

          k =-0.1000 0.9000-0.1000 (   730 PWs)   bands (ev):

   -66.3465 -32.6695 -32.6695 -32.6010  15.9738  15.9738  20.1983  21.1080
    21.1080  28.7329  28.7329  29.4881

          k = 0.0000 0.0000 0.9000 (   731 PWs)   bands (ev):

   -66.3401 -32.6642 -32.6558 -32.6558  15.7762  15.8085  21.0715  21.0715
    21.2364  28.1892  29.7930  29.7930

     the Fermi energy is    18.9704 ev

!    total energy              =    -254.36909600 Ry
     estimated scf accuracy    <          1.7E-09 Ry
     smearing contrib. (-TS)   =      -0.00001566 Ry
     internal energy E=F+TS    =    -254.36908033 Ry

     The total energy is F=E-TS. E is the sum of the following terms:
     one-electron contribution =    -108.12663730 Ry
     hartree contribution      =      64.38869876 Ry
     xc contribution           =     -34.84929970 Ry
     ewald contribution        =    -175.78184209 Ry

     total magnetization       =     2.16 Bohr mag/cell
     absolute magnetization    =     2.26 Bohr mag/cell

     convergence has been achieved in  11 iterations

     Writing output data file ./tempdir/fe.save/

     init_run     :      0.77s CPU      0.80s WALL (       1 calls)
     electrons    :      9.54s CPU     10.42s WALL (       1 calls)

     Called by init_run:
     wfcinit      :      0.22s CPU      0.22s WALL (       1 calls)
     potinit      :      0.09s CPU      0.10s WALL (       1 calls)
     hinit0       :      0.39s CPU      0.39s WALL (       1 calls)

     Called by electrons:
     c_bands      :      5.68s CPU      6.28s WALL (      11 calls)
     sum_band     :      2.15s CPU      2.27s WALL (      11 calls)
     v_of_rho     :      0.99s CPU      1.04s WALL (      12 calls)
     newd         :      0.70s CPU      0.83s WALL (      12 calls)
     mix_rho      :      0.07s CPU      0.07s WALL (      11 calls)

     Called by c_bands:
     init_us_2    :      0.13s CPU      0.13s WALL (    1012 calls)
     cegterg      :      4.97s CPU      5.00s WALL (     484 calls)

     Called by *egterg:
     cdiaghg      :      0.18s CPU      0.18s WALL (    1726 calls)
     h_psi        :      4.57s CPU      4.60s WALL (    1770 calls)
     s_psi        :      0.06s CPU      0.06s WALL (    1770 calls)
     g_psi        :      0.02s CPU      0.02s WALL (    1242 calls)

     Called by h_psi:
     h_psi:calbec :      0.08s CPU      0.08s WALL (    1770 calls)
     vloc_psi     :      4.42s CPU      4.45s WALL (    1770 calls)
     add_vuspsi   :      0.06s CPU      0.06s WALL (    1770 calls)

     General routines
     calbec       :      0.10s CPU      0.10s WALL (    2254 calls)
     fft          :      0.41s CPU      0.42s WALL (     294 calls)
     ffts         :      0.01s CPU      0.01s WALL (      46 calls)
     fftw         :      4.87s CPU      4.91s WALL (   35258 calls)
     interpolate  :      0.05s CPU      0.05s WALL (      24 calls)

     Parallel routines

     PWSCF        :     10.38s CPU     11.31s WALL


   This run was terminated on:   0:18:44  19Apr2021            

=------------------------------------------------------------------------------=
   JOB DONE.
=------------------------------------------------------------------------------=
