
     Program PWSCF v.6.7GPU starts on 19Apr2021 at  0:17:55 

     This program is part of the open-source Quantum ESPRESSO suite
     for quantum simulation of materials; please cite
         "P. Giannozzi et al., J. Phys.:Condens. Matter 21 395502 (2009);
         "P. Giannozzi et al., J. Phys.:Condens. Matter 29 465901 (2017);
         "P. Giannozzi et al., J. Chem. Phys. 152 154105 (2020);
          URL http://www.quantum-espresso.org", 
     in publications or presentations arising from this work. More details at
     http://www.quantum-espresso.org/quote

     Parallel version (MPI & OpenMP), running on       2 processor cores
     Number of MPI processes:                 2
     Threads/MPI process:                     1

     MPI processes distributed on     1 nodes
     K-points division:     npool     =       2
     Reading input from fe.scf.4.9.in

     Current dimensions of program PWSCF are:
     Max number of different atomic species (ntypx) = 10
     Max number of k-points (npk) =  40000
     Max angular momentum in pseudopotentials (lmaxx) =  3

     Subspace diagonalization in iterative solution of the eigenvalue problem:
     a serial algorithm will be used


     G-vector sticks info
     --------------------
     sticks:   dense  smooth     PW     G-vecs:    dense   smooth      PW
     Sum        1151     383    129                24643     4729     887

     Using Slab Decomposition



     bravais-lattice index     =            3
     lattice parameter (alat)  =       4.9000  a.u.
     unit-cell volume          =      58.8245 (a.u.)^3
     number of atoms/cell      =            1
     number of atomic types    =            1
     number of electrons       =        16.00
     number of Kohn-Sham states=           12
     kinetic-energy cutoff     =      70.0000  Ry
     charge density cutoff     =     850.0000  Ry
     scf convergence threshold =      1.0E-08
     mixing beta               =       0.7000
     number of iterations used =            8  plain     mixing
     Exchange-correlation= PBE
                           (   1   4   3   4   0   0   0)

     celldm(1)=   4.900000  celldm(2)=   0.000000  celldm(3)=   0.000000
     celldm(4)=   0.000000  celldm(5)=   0.000000  celldm(6)=   0.000000

     crystal axes: (cart. coord. in units of alat)
               a(1) = (   0.500000   0.500000   0.500000 )  
               a(2) = (  -0.500000   0.500000   0.500000 )  
               a(3) = (  -0.500000  -0.500000   0.500000 )  

     reciprocal axes: (cart. coord. in units 2 pi/alat)
               b(1) = (  1.000000  0.000000  1.000000 )  
               b(2) = ( -1.000000  1.000000  0.000000 )  
               b(3) = (  0.000000 -1.000000  1.000000 )  


     PseudoPot. # 1 for Fe read from file:
     /home/pietro/repositories/materials-for-max-qe2021-online-school/pseudo/Fe.pbe-spn-rrkjus_psl.0.2.1.UPF
     MD5 check sum: f9af58635850a145d9bd408d58feeb93
     Pseudo is Ultrasoft + core correction, Zval = 16.0
     Generated using "atomic" code by A. Dal Corso  v.5.0.2 svn rev. 9415
     Using radial grid of 1191 points,  6 beta functions with: 
                l(1) =   0
                l(2) =   0
                l(3) =   1
                l(4) =   1
                l(5) =   2
                l(6) =   2
     Q(r) pseudized with 0 coefficients 


     atomic species   valence    mass     pseudopotential
        Fe            16.00    55.84500     Fe( 1.00)

     Starting magnetic structure 
     atomic species   magnetization
        Fe           0.700

     48 Sym. Ops., with inversion, found



   Cartesian axes

     site n.     atom                  positions (alat units)
         1           Fe  tau(   1) = (   0.0000000   0.0000000   0.0000000  )

     number of k points=    44  Marzari-Vanderbilt smearing, width (Ry)=  0.0200
                       cart. coord. in units 2pi/alat
        k(    1) = (   0.0000000   0.0000000   0.1000000), wk =   0.0060000
        k(    2) = (   0.0000000  -0.1000000   0.2000000), wk =   0.0240000
        k(    3) = (   0.0000000  -0.2000000   0.3000000), wk =   0.0240000
        k(    4) = (   0.0000000  -0.3000000   0.4000000), wk =   0.0240000
        k(    5) = (   0.0000000  -0.4000000   0.5000000), wk =   0.0240000
        k(    6) = (  -0.1000000   0.1000000   0.1000000), wk =   0.0080000
        k(    7) = (  -0.1000000  -0.1000000   0.3000000), wk =   0.0240000
        k(    8) = (  -0.1000000  -0.2000000   0.4000000), wk =   0.0480000
        k(    9) = (  -0.1000000  -0.3000000   0.5000000), wk =   0.0480000
        k(   10) = (  -0.1000000   0.6000000  -0.4000000), wk =   0.0240000
        k(   11) = (  -0.2000000   0.2000000   0.1000000), wk =   0.0240000
        k(   12) = (  -0.2000000  -0.2000000   0.5000000), wk =   0.0240000
        k(   13) = (  -0.2000000   0.7000000  -0.4000000), wk =   0.0480000
        k(   14) = (  -0.3000000   0.3000000   0.1000000), wk =   0.0240000
        k(   15) = (  -0.3000000   0.2000000   0.2000000), wk =   0.0240000
        k(   16) = (  -0.3000000   0.7000000  -0.3000000), wk =   0.0080000
        k(   17) = (  -0.4000000   0.4000000   0.1000000), wk =   0.0240000
        k(   18) = (  -0.4000000   0.3000000   0.2000000), wk =   0.0480000
        k(   19) = (   0.5000000  -0.5000000   0.1000000), wk =   0.0120000
        k(   20) = (   0.5000000  -0.6000000   0.2000000), wk =   0.0480000
        k(   21) = (   0.5000000  -0.7000000   0.3000000), wk =   0.0240000
        k(   22) = (   0.4000000  -0.6000000   0.3000000), wk =   0.0240000
        k(   23) = (   0.0000000   0.0000000   0.3000000), wk =   0.0060000
        k(   24) = (   0.0000000  -0.1000000   0.4000000), wk =   0.0240000
        k(   25) = (   0.0000000  -0.2000000   0.5000000), wk =   0.0240000
        k(   26) = (   0.0000000  -0.3000000   0.6000000), wk =   0.0240000
        k(   27) = (  -0.1000000  -0.1000000   0.5000000), wk =   0.0240000
        k(   28) = (  -0.1000000  -0.2000000   0.6000000), wk =   0.0480000
        k(   29) = (  -0.1000000   0.7000000  -0.3000000), wk =   0.0240000
        k(   30) = (  -0.2000000   0.8000000  -0.3000000), wk =   0.0240000
        k(   31) = (  -0.3000000   0.3000000   0.3000000), wk =   0.0080000
        k(   32) = (   0.6000000  -0.6000000   0.3000000), wk =   0.0240000
        k(   33) = (   0.5000000  -0.5000000   0.3000000), wk =   0.0120000
        k(   34) = (   0.5000000  -0.6000000   0.4000000), wk =   0.0240000
        k(   35) = (   0.0000000   0.0000000   0.5000000), wk =   0.0060000
        k(   36) = (   0.0000000  -0.1000000   0.6000000), wk =   0.0240000
        k(   37) = (   0.0000000  -0.2000000   0.7000000), wk =   0.0240000
        k(   38) = (  -0.1000000  -0.1000000   0.7000000), wk =   0.0240000
        k(   39) = (  -0.1000000   0.8000000  -0.2000000), wk =   0.0240000
        k(   40) = (   0.5000000  -0.5000000   0.5000000), wk =   0.0020000
        k(   41) = (   0.0000000   0.0000000   0.7000000), wk =   0.0060000
        k(   42) = (   0.0000000  -0.1000000   0.8000000), wk =   0.0240000
        k(   43) = (  -0.1000000   0.9000000  -0.1000000), wk =   0.0080000
        k(   44) = (   0.0000000   0.0000000   0.9000000), wk =   0.0060000

     Dense  grid:    24643 G-vectors     FFT dimensions: (  40,  40,  40)

     Smooth grid:     4729 G-vectors     FFT dimensions: (  24,  24,  24)

     Estimated max dynamical RAM per process >      67.47 MB

     Estimated total dynamical RAM >     122.90 MB

     Check: negative core charge=   -0.000011
     Generating pointlists ...
     new r_m :   0.3572 (alat units)  1.7505 (a.u.) for type    1

     Initial potential from superposition of free atoms

     starting charge   15.99956, renormalised to   16.00000
     Starting wfcs are   13 randomized atomic wfcs

     total cpu time spent up to now is        0.7 secs

     Self-consistent Calculation

     iteration #  1     ecut=    70.00 Ry     beta= 0.70
     Davidson diagonalization with overlap
     ethr =  1.00E-02,  avg # of iterations =  4.1

     negative rho (up, down):  0.000E+00 4.409E-05

     total cpu time spent up to now is        1.4 secs

     total energy              =    -254.00168888 Ry
     estimated scf accuracy    <       1.62092566 Ry

     total magnetization       =     3.57 Bohr mag/cell
     absolute magnetization    =     3.57 Bohr mag/cell

     iteration #  2     ecut=    70.00 Ry     beta= 0.70
     Davidson diagonalization with overlap
     ethr =  1.00E-02,  avg # of iterations =  1.0

     negative rho (up, down):  0.000E+00 5.059E-05

     total cpu time spent up to now is        1.9 secs

     total energy              =    -254.24693320 Ry
     estimated scf accuracy    <       0.29384073 Ry

     total magnetization       =     2.79 Bohr mag/cell
     absolute magnetization    =     2.88 Bohr mag/cell

     iteration #  3     ecut=    70.00 Ry     beta= 0.70
     Davidson diagonalization with overlap
     ethr =  1.84E-03,  avg # of iterations =  1.8

     negative rho (up, down):  0.000E+00 4.438E-05

     total cpu time spent up to now is        2.6 secs

     total energy              =    -254.28175846 Ry
     estimated scf accuracy    <       0.22957763 Ry

     total magnetization       =     1.99 Bohr mag/cell
     absolute magnetization    =     2.09 Bohr mag/cell

     iteration #  4     ecut=    70.00 Ry     beta= 0.70
     Davidson diagonalization with overlap
     ethr =  1.43E-03,  avg # of iterations =  2.0

     negative rho (up, down):  0.000E+00 1.332E-05

     total cpu time spent up to now is        3.2 secs

     total energy              =    -254.31855099 Ry
     estimated scf accuracy    <       0.00439394 Ry

     total magnetization       =     1.87 Bohr mag/cell
     absolute magnetization    =     1.97 Bohr mag/cell

     iteration #  5     ecut=    70.00 Ry     beta= 0.70
     Davidson diagonalization with overlap
     ethr =  2.75E-05,  avg # of iterations =  4.0

     negative rho (up, down):  0.000E+00 6.576E-06

     total cpu time spent up to now is        3.9 secs

     total energy              =    -254.32214461 Ry
     estimated scf accuracy    <       0.00058411 Ry

     total magnetization       =     1.73 Bohr mag/cell
     absolute magnetization    =     1.80 Bohr mag/cell

     iteration #  6     ecut=    70.00 Ry     beta= 0.70
     Davidson diagonalization with overlap
     ethr =  3.65E-06,  avg # of iterations =  2.7

     negative rho (up, down):  0.000E+00 3.344E-06

     total cpu time spent up to now is        4.6 secs

     total energy              =    -254.32238277 Ry
     estimated scf accuracy    <       0.00032746 Ry

     total magnetization       =     1.75 Bohr mag/cell
     absolute magnetization    =     1.81 Bohr mag/cell

     iteration #  7     ecut=    70.00 Ry     beta= 0.70
     Davidson diagonalization with overlap
     ethr =  2.05E-06,  avg # of iterations =  1.6

     negative rho (up, down):  0.000E+00 3.770E-06

     total cpu time spent up to now is        5.2 secs

     total energy              =    -254.32246832 Ry
     estimated scf accuracy    <       0.00000133 Ry

     total magnetization       =     1.73 Bohr mag/cell
     absolute magnetization    =     1.79 Bohr mag/cell

     iteration #  8     ecut=    70.00 Ry     beta= 0.70
     Davidson diagonalization with overlap
     ethr =  8.33E-09,  avg # of iterations =  5.1

     negative rho (up, down):  0.000E+00 3.557E-06

     total cpu time spent up to now is        6.0 secs

     total energy              =    -254.32247171 Ry
     estimated scf accuracy    <       0.00000098 Ry

     total magnetization       =     1.73 Bohr mag/cell
     absolute magnetization    =     1.79 Bohr mag/cell

     iteration #  9     ecut=    70.00 Ry     beta= 0.70
     Davidson diagonalization with overlap
     ethr =  6.12E-09,  avg # of iterations =  2.0

     negative rho (up, down):  0.000E+00 3.498E-06

     total cpu time spent up to now is        6.6 secs

     total energy              =    -254.32247201 Ry
     estimated scf accuracy    <       0.00000015 Ry

     total magnetization       =     1.73 Bohr mag/cell
     absolute magnetization    =     1.79 Bohr mag/cell

     iteration # 10     ecut=    70.00 Ry     beta= 0.70
     Davidson diagonalization with overlap
     ethr =  9.58E-10,  avg # of iterations =  1.9

     negative rho (up, down):  0.000E+00 3.497E-06

     Magnetic moment per site  (integrated on atomic sphere of radius R)
     atom   1 (R=0.357)  charge= 14.1718  magn=  1.7371

     total cpu time spent up to now is        7.2 secs

     End of self-consistent calculation

 ------ SPIN UP ------------


          k = 0.0000 0.0000 0.1000 (   587 PWs)   bands (ev):

   -63.3349 -28.8324 -28.8142 -28.8142  15.2474  22.2308  22.2308  22.3183
    23.9320  24.1435  51.4802  52.6346

          k = 0.0000-0.1000 0.2000 (   586 PWs)   bands (ev):

   -63.2927 -29.0117 -28.8725 -28.8198  16.2164  21.9398  22.1566  22.9289
    23.6146  24.2478  48.5825  51.3343

          k = 0.0000-0.2000 0.3000 (   590 PWs)   bands (ev):

   -63.2241 -29.3052 -28.9668 -28.8206  17.7388  21.4504  21.9751  23.6494
    24.0428  24.3765  44.1649  48.9595

          k = 0.0000-0.3000 0.4000 (   582 PWs)   bands (ev):

   -63.1549 -29.5915 -29.0599 -28.8212  18.6157  20.9871  22.6664  24.0458
    24.7148  25.2911  39.4848  46.9521

          k = 0.0000-0.4000 0.5000 (   580 PWs)   bands (ev):

   -63.1118 -29.7666 -29.1167 -28.8213  18.5967  20.7127  23.5862  24.1541
    26.0553  26.1534  35.8787  45.8250

          k =-0.1000 0.1000 0.1000 (   594 PWs)   bands (ev):

   -63.3135 -28.9547 -28.8158 -28.8158  15.7446  22.0292  22.0292  22.8158
    23.9949  23.9949  50.4830  50.4830

          k =-0.1000-0.1000 0.3000 (   589 PWs)   bands (ev):

   -63.2382 -29.2116 -28.9402 -28.8612  17.4696  21.7808  21.8271  23.3306
    23.7662  24.4938  46.1527  48.1014

          k =-0.1000-0.2000 0.4000 (   585 PWs)   bands (ev):

   -63.1702 -29.4650 -29.0499 -28.8733  18.7953  21.2380  21.7612  23.5618
    24.6107  25.3670  42.0618  45.4662

          k =-0.1000-0.3000 0.5000 (   579 PWs)   bands (ev):

   -63.1148 -29.6671 -29.1446 -28.8755  19.0749  20.9713  22.2578  23.9410
    25.1617  27.2374  37.6424  44.0115

          k =-0.1000 0.6000-0.4000 (   586 PWs)   bands (ev):

   -63.0936 -29.7441 -29.1815 -28.8761  18.9786  20.8788  22.5861  23.9954
    25.5991  28.6371  35.2833  43.4827

          k =-0.2000 0.2000 0.1000 (   588 PWs)   bands (ev):

   -63.2573 -29.1951 -28.8942 -28.8187  17.0794  21.5634  21.7739  23.8079
    23.8582  24.1231  46.4600  48.6620

          k =-0.2000-0.2000 0.5000 (   580 PWs)   bands (ev):

   -63.1160 -29.5880 -29.1878 -28.9060  19.6910  20.6942  21.7696  23.7634
    24.8488  27.6293  39.8751  41.2218

          k =-0.2000 0.7000-0.4000 (   580 PWs)   bands (ev):

   -63.0824 -29.6381 -29.3089 -28.9158  19.7907  20.7990  21.5962  24.1135
    25.0598  30.4056  36.1760  39.7617

          k =-0.3000 0.3000 0.1000 (   576 PWs)   bands (ev):

   -63.1872 -29.4720 -29.0048 -28.8224  18.4822  21.0602  21.9305  23.9697
    24.2595  25.2057  41.7927  46.7248

          k =-0.3000 0.2000 0.2000 (   592 PWs)   bands (ev):

   -63.1996 -29.4136 -28.9578 -28.8649  18.5214  21.1852  21.2713  23.8877
    24.2818  25.2854  43.9549  45.1764

          k =-0.3000 0.7000-0.3000 (   571 PWs)   bands (ev):

   -63.0700 -29.5015 -29.5015 -28.9258  20.4393  20.8202  20.8202  24.6402
    24.6402  33.9003  33.9003  37.5995

          k =-0.4000 0.4000 0.1000 (   580 PWs)   bands (ev):

   -63.1301 -29.6903 -29.0970 -28.8260  18.7699  20.6896  23.4151  24.2029
    24.3750  26.7189  37.4434  45.2810

          k =-0.4000 0.3000 0.2000 (   581 PWs)   bands (ev):

   -63.1415 -29.5885 -29.0858 -28.8852  19.4228  20.7783  21.6857  24.0572
    24.4547  27.1807  39.8134  43.1198

          k = 0.5000-0.5000 0.1000 (   586 PWs)   bands (ev):

   -63.1082 -29.7730 -29.1325 -28.8274  18.6894  20.5546  24.2428  24.4227
    24.4369  27.6961  35.2658  44.7514

          k = 0.5000-0.6000 0.2000 (   580 PWs)   bands (ev):

   -63.1054 -29.6813 -29.1846 -28.8931  19.3272  20.5897  22.6992  24.2473
    24.6002  29.2566  36.0172  42.1505

          k = 0.5000-0.7000 0.3000 (   581 PWs)   bands (ev):

   -63.1044 -29.6035 -29.2368 -28.9301  19.9678  20.6739  21.6381  24.2218
    24.5903  29.8458  37.7527  39.4314

          k = 0.4000-0.6000 0.3000 (   576 PWs)   bands (ev):

   -63.0902 -29.5632 -29.3444 -28.9429  19.9848  20.7586  21.6889  24.3723
    24.5929  32.1897  35.1308  38.5344

          k = 0.0000 0.0000 0.3000 (   587 PWs)   bands (ev):

   -63.2529 -29.0616 -28.9330 -28.9330  17.0981  22.3066  22.3066  22.8171
    22.9418  24.6013  47.7187  50.8284

          k = 0.0000-0.1000 0.4000 (   590 PWs)   bands (ev):

   -63.1880 -29.2941 -29.0308 -28.9599  18.4450  21.7286  22.0678  22.9553
    23.9021  25.0444  44.7100  48.0907

          k = 0.0000-0.2000 0.5000 (   580 PWs)   bands (ev):

   -63.1226 -29.5529 -29.1265 -28.9542  19.2133  21.3776  21.6872  23.5465
    25.1722  26.2297  40.0318  46.5068

          k = 0.0000-0.3000 0.6000 (   575 PWs)   bands (ev):

   -63.0819 -29.7128 -29.1851 -28.9489  19.1142  21.4516  21.6798  23.6669
    26.0702  28.4449  36.0814  45.6583

          k =-0.1000-0.1000 0.5000 (   581 PWs)   bands (ev):

   -63.1255 -29.4580 -29.1479 -29.0086  19.4255  20.9060  22.2560  23.1825
    24.6841  26.2649  42.5680  43.7538

          k =-0.1000-0.2000 0.6000 (   583 PWs)   bands (ev):

   -63.0747 -29.6097 -29.2580 -29.0114  19.6693  20.6355  21.9497  23.7025
    25.4135  28.7619  38.2976  41.8376

          k =-0.1000 0.7000-0.3000 (   576 PWs)   bands (ev):

   -63.0552 -29.6686 -29.3002 -29.0094  19.4968  20.8826  21.6808  23.8471
    25.8073  30.9322  35.4197  41.2564

          k =-0.2000 0.8000-0.3000 (   579 PWs)   bands (ev):

   -63.0451 -29.5834 -29.4253 -29.0205  20.0667  20.2070  21.5679  24.4661
    25.2671  32.1761  36.3203  38.2432

          k =-0.3000 0.3000 0.3000 (   586 PWs)   bands (ev):

   -63.1517 -29.5540 -28.9789 -28.9789  19.9570  20.7733  20.7733  24.2425
    24.2425  27.2375  42.1363  42.1363

          k = 0.6000-0.6000 0.3000 (   580 PWs)   bands (ev):

   -63.1128 -29.5976 -29.1420 -28.9957  20.1280  20.5543  21.5636  24.3364
    24.4107  29.6342  38.1281  40.9453

          k = 0.5000-0.5000 0.3000 (   566 PWs)   bands (ev):

   -63.0979 -29.5861 -29.2310 -29.0019  19.9602  20.4891  22.1590  24.3964
    24.4559  31.5645  35.4266  40.5301

          k = 0.5000-0.6000 0.4000 (   571 PWs)   bands (ev):

   -63.0951 -29.4912 -29.2762 -29.0772  20.3500  20.7964  21.3836  24.4340
    24.4732  32.6589  36.3918  38.1711

          k = 0.0000 0.0000 0.5000 (   583 PWs)   bands (ev):

   -63.1292 -29.3244 -29.1328 -29.1328  19.3012  21.0771  22.8676  22.8676
    23.9860  26.0293  45.3682  46.0469

          k = 0.0000-0.1000 0.6000 (   585 PWs)   bands (ev):

   -63.0701 -29.4935 -29.2338 -29.1640  19.6512  20.2667  22.9186  23.4313
    25.0076  27.9350  41.0686  43.7429

          k = 0.0000-0.2000 0.7000 (   580 PWs)   bands (ev):

   -63.0333 -29.6255 -29.2953 -29.1530  19.3949  20.1248  22.7901  23.6868
    25.9372  30.8859  36.6434  42.3300

          k =-0.1000-0.1000 0.7000 (   583 PWs)   bands (ev):

   -63.0249 -29.5528 -29.3632 -29.1949  19.5957  19.6017  23.0312  24.2434
    25.4969  30.7358  39.0892  39.8657

          k =-0.1000 0.8000-0.2000 (   578 PWs)   bands (ev):

   -63.0076 -29.5754 -29.4269 -29.1912  19.3274  19.5742  22.9492  24.6627
    25.7373  33.6311  35.8480  38.9296

          k = 0.5000-0.5000 0.5000 (   544 PWs)   bands (ev):

   -63.0914 -29.2901 -29.2901 -29.2901  20.8762  20.8762  20.8762  24.4766
    24.4766  35.9275  35.9275  35.9275

          k = 0.0000 0.0000 0.7000 (   582 PWs)   bands (ev):

   -63.0172 -29.4637 -29.3392 -29.3392  19.3574  19.4390  24.1459  24.1459
    25.0762  30.1635  41.1315  41.1315

          k = 0.0000-0.1000 0.8000 (   577 PWs)   bands (ev):

   -62.9844 -29.5375 -29.4037 -29.3527  18.9423  19.0482  24.4016  24.6962
    25.8076  33.2757  37.5732  39.5111

          k =-0.1000 0.9000-0.1000 (   580 PWs)   bands (ev):

   -62.9689 -29.4995 -29.4995 -29.3647  18.7576  18.7576  24.5578  25.6393
    25.6393  36.2576  36.2576  37.4069

          k = 0.0000 0.0000 0.9000 (   598 PWs)   bands (ev):

   -62.9542 -29.4890 -29.4708 -29.4708  18.4803  18.5024  25.5982  25.5982
    25.7737  35.7325  37.7054  37.7054

 ------ SPIN DOWN ----------


          k = 0.0000 0.0000 0.1000 (   587 PWs)   bands (ev):

   -61.1513 -26.6564 -26.6361 -26.6361  15.4624  23.6473  23.6473  23.7463
    26.2979  26.5512  51.4922  52.5587

          k = 0.0000-0.1000 0.2000 (   586 PWs)   bands (ev):

   -61.1063 -26.8505 -26.6986 -26.6423  16.4471  23.3222  23.5594  24.3885
    25.8814  26.6630  48.9058  51.4473

          k = 0.0000-0.2000 0.3000 (   590 PWs)   bands (ev):

   -61.0330 -27.1676 -26.7995 -26.6433  18.0746  22.7804  23.3165  25.5682
    25.7518  26.7873  44.7882  49.1398

          k = 0.0000-0.3000 0.4000 (   582 PWs)   bands (ev):

   -60.9590 -27.4764 -26.8989 -26.6442  19.3573  22.2713  23.7212  26.0210
    26.9024  26.9895  40.3362  47.1114

          k = 0.0000-0.4000 0.5000 (   580 PWs)   bands (ev):

   -60.9130 -27.6648 -26.9597 -26.6444  19.6110  21.9713  24.9010  26.2219
    27.5060  27.8345  36.9727  45.9519

          k =-0.1000 0.1000 0.1000 (   594 PWs)   bands (ev):

   -61.1284 -26.7885 -26.6379 -26.6379  15.9654  23.4287  23.4287  24.2658
    26.3623  26.3623  50.6481  50.6481

          k =-0.1000-0.1000 0.3000 (   589 PWs)   bands (ev):

   -61.0480 -27.0665 -26.7713 -26.6868  17.7530  23.1621  23.2100  25.2557
    25.4375  26.9060  46.6706  48.4900

          k =-0.1000-0.2000 0.4000 (   585 PWs)   bands (ev):

   -60.9754 -27.3397 -26.8891 -26.7000  19.3233  22.6076  23.0211  25.5183
    26.5289  27.2894  42.7898  45.9259

          k =-0.1000-0.3000 0.5000 (   579 PWs)   bands (ev):

   -60.9163 -27.5573 -26.9905 -26.7025  20.0403  22.2514  23.4739  25.9024
    27.1232  28.6860  38.5785  44.4771

          k =-0.1000 0.6000-0.4000 (   586 PWs)   bands (ev):

   -60.8936 -27.6401 -27.0301 -26.7032  20.0663  22.1365  23.9163  26.0184
    27.4186  29.8116  36.4015  43.9410

          k =-0.2000 0.2000 0.1000 (   588 PWs)   bands (ev):

   -61.0684 -27.0484 -26.7220 -26.6413  17.3363  22.9137  23.1476  25.3101
    26.1007  26.5068  46.9309  48.9453

          k =-0.2000-0.2000 0.5000 (   580 PWs)   bands (ev):

   -60.9176 -27.4719 -27.0382 -26.7348  20.5261  22.0949  22.9410  25.6791
    26.9210  29.0893  40.7141  41.8262

          k =-0.2000 0.7000-0.4000 (   580 PWs)   bands (ev):

   -60.8817 -27.5253 -27.1689 -26.7452  20.9127  22.0868  22.8622  26.0496
    26.9920  31.5752  37.1530  40.4245

          k =-0.3000 0.3000 0.1000 (   576 PWs)   bands (ev):

   -60.9935 -27.3475 -26.8405 -26.6454  18.9752  22.3531  23.0764  26.1291
    26.6764  26.7171  42.5113  47.0042

          k =-0.3000 0.2000 0.2000 (   592 PWs)   bands (ev):

   -61.0067 -27.2840 -26.7906 -26.6909  18.8707  22.5266  22.5413  26.1071
    26.6275  26.8079  44.5398  45.6446

          k =-0.3000 0.7000-0.3000 (   571 PWs)   bands (ev):

   -60.8684 -27.3775 -27.3775 -26.7558  21.5787  22.1316  22.1316  26.5555
    26.5555  34.9123  34.9123  38.3556

          k =-0.4000 0.4000 0.1000 (   580 PWs)   bands (ev):

   -60.9325 -27.5827 -26.9391 -26.6495  19.6866  21.9412  24.1707  26.3128
    26.8282  28.1378  38.3952  45.5124

          k =-0.4000 0.3000 0.2000 (   581 PWs)   bands (ev):

   -60.9446 -27.4726 -26.9284 -26.7130  20.1740  22.0361  22.6968  26.2348
    26.8395  28.5788  40.5851  43.6256

          k = 0.5000-0.5000 0.1000 (   586 PWs)   bands (ev):

   -60.9091 -27.6716 -26.9770 -26.6510  19.7196  21.7915  25.1121  26.3913
    26.8924  28.9059  36.4057  44.9585

          k = 0.5000-0.6000 0.2000 (   580 PWs)   bands (ev):

   -60.9061 -27.5726 -27.0344 -26.7217  20.3568  21.8005  23.6532  26.4220
    26.9333  30.3927  37.0175  42.6431

          k = 0.5000-0.7000 0.3000 (   581 PWs)   bands (ev):

   -60.9050 -27.4883 -27.0920 -26.7613  20.9794  21.8950  22.6251  26.4061
    26.9037  31.0350  38.5827  40.0912

          k = 0.4000-0.6000 0.3000 (   576 PWs)   bands (ev):

   -60.8898 -27.4450 -27.2081 -26.7749  21.0707  21.9286  22.7717  26.5745
    26.8449  33.1688  36.0956  39.2270

          k = 0.0000 0.0000 0.3000 (   587 PWs)   bands (ev):

   -61.0638 -26.9055 -26.7636 -26.7636  17.3594  23.6874  23.6874  24.4066
    24.9623  27.0293  48.1291  51.1899

          k = 0.0000-0.1000 0.4000 (   590 PWs)   bands (ev):

   -60.9945 -27.1559 -26.8683 -26.7929  18.8460  23.3491  23.4203  24.6834
    25.4171  27.3632  45.3645  48.4794

          k = 0.0000-0.2000 0.5000 (   580 PWs)   bands (ev):

   -60.9247 -27.4344 -26.9708 -26.7873  20.0415  22.8552  23.0032  25.2814
    26.7729  28.0886  40.8629  46.9150

          k = 0.0000-0.3000 0.6000 (   575 PWs)   bands (ev):

   -60.8812 -27.6060 -27.0335 -26.7817  20.2562  22.7459  23.1050  25.5180
    27.7450  29.7179  37.1203  46.1995

          k =-0.1000-0.1000 0.5000 (   581 PWs)   bands (ev):

   -60.9279 -27.3321 -26.9944 -26.8452  20.1168  22.5440  23.5870  24.7932
    26.3371  28.1481  43.3637  44.3093

          k =-0.1000-0.2000 0.6000 (   583 PWs)   bands (ev):

   -60.8737 -27.4946 -27.1129 -26.8481  20.8080  22.0875  23.2935  25.3772
    27.1229  30.1234  39.1821  42.4779

          k =-0.1000 0.7000-0.3000 (   576 PWs)   bands (ev):

   -60.8529 -27.5577 -27.1583 -26.8460  20.7923  22.3185  22.9903  25.5609
    27.5068  32.0240  36.4558  41.8907

          k =-0.2000 0.8000-0.3000 (   579 PWs)   bands (ev):

   -60.8421 -27.4652 -27.2940 -26.8574  21.5395  21.5451  22.8503  26.1304
    26.9737  33.2703  37.2836  38.9385

          k =-0.3000 0.3000 0.3000 (   586 PWs)   bands (ev):

   -60.9555 -27.4351 -26.8140 -26.8140  20.4201  22.0165  22.0165  26.5891
    26.5891  28.6341  42.7283  42.7284

          k = 0.6000-0.6000 0.3000 (   580 PWs)   bands (ev):

   -60.9139 -27.4821 -26.9897 -26.8326  21.1081  21.7269  22.4507  26.6571
    26.8522  30.8184  38.9086  41.5186

          k = 0.5000-0.5000 0.3000 (   566 PWs)   bands (ev):

   -60.8979 -27.4701 -27.0855 -26.8395  21.0056  21.6359  23.0782  26.7100
    26.9332  32.5059  36.3986  41.0922

          k = 0.5000-0.6000 0.4000 (   571 PWs)   bands (ev):

   -60.8949 -27.3674 -27.1353 -26.9204  21.4284  21.8845  22.3406  26.8297
    26.9194  33.6128  37.1886  38.8767

          k = 0.0000 0.0000 0.5000 (   583 PWs)   bands (ev):

   -60.9319 -27.1896 -26.9778 -26.9778  19.9481  22.9291  24.2389  24.2389
    25.5167  28.0447  46.1399  46.6202

          k = 0.0000-0.1000 0.6000 (   585 PWs)   bands (ev):

   -60.8689 -27.3697 -27.0861 -27.0122  20.7113  21.9266  24.2952  24.9106
    26.5970  29.4256  41.8267  44.3091

          k = 0.0000-0.2000 0.7000 (   580 PWs)   bands (ev):

   -60.8297 -27.5107 -27.1521 -27.0009  20.7941  21.5981  24.1587  25.2269
    27.6019  31.9701  37.5435  42.8565

          k =-0.1000-0.1000 0.7000 (   583 PWs)   bands (ev):

   -60.8209 -27.4322 -27.2259 -27.0450  20.9336  21.1835  24.4093  25.7466
    27.1349  31.8394  39.8932  40.4664

          k =-0.1000 0.8000-0.2000 (   578 PWs)   bands (ev):

   -60.8024 -27.4556 -27.2947 -27.0410  20.8298  21.0575  24.2948  26.2150
    27.3881  34.5450  36.7091  39.5560

          k = 0.5000-0.5000 0.5000 (   544 PWs)   bands (ev):

   -60.8910 -27.1507 -27.1507 -27.1507  21.9101  21.9101  21.9101  26.9586
    26.9586  36.7063  36.7063  36.7063

          k = 0.0000 0.0000 0.7000 (   582 PWs)   bands (ev):

   -60.8128 -27.3369 -27.1995 -27.1995  20.6782  21.0669  25.5910  25.5910
    26.6816  31.2547  41.6589  41.6589

          k = 0.0000-0.1000 0.8000 (   577 PWs)   bands (ev):

   -60.7778 -27.4143 -27.2688 -27.2149  20.4559  20.5416  25.8891  26.1957
    27.4629  34.0860  38.2102  39.9721

          k =-0.1000 0.9000-0.1000 (   580 PWs)   bands (ev):

   -60.7614 -27.3725 -27.3725 -27.2272  20.2660  20.2660  26.0455  27.2645
    27.2645  36.8817  36.8817  37.8968

          k = 0.0000 0.0000 0.9000 (   598 PWs)   bands (ev):

   -60.7457 -27.3610 -27.3409 -27.3409  19.9959  19.9968  27.2147  27.2147
    27.4301  36.2350  38.0623  38.0623

     the Fermi energy is    25.2469 ev

!    total energy              =    -254.32247206 Ry
     estimated scf accuracy    <          5.5E-09 Ry
     smearing contrib. (-TS)   =      -0.00062356 Ry
     internal energy E=F+TS    =    -254.32184850 Ry

     The total energy is F=E-TS. E is the sum of the following terms:
     one-electron contribution =     -85.75994416 Ry
     hartree contribution      =      56.60600224 Ry
     xc contribution           =     -35.03652636 Ry
     ewald contribution        =    -190.13138022 Ry

     total magnetization       =     1.73 Bohr mag/cell
     absolute magnetization    =     1.79 Bohr mag/cell

     convergence has been achieved in  10 iterations

     Writing output data file ./tempdir/fe.save/

     init_run     :      0.66s CPU      0.68s WALL (       1 calls)
     electrons    :      6.21s CPU      6.43s WALL (       1 calls)

     Called by init_run:
     wfcinit      :      0.16s CPU      0.16s WALL (       1 calls)
     potinit      :      0.06s CPU      0.06s WALL (       1 calls)
     hinit0       :      0.39s CPU      0.39s WALL (       1 calls)

     Called by electrons:
     c_bands      :      3.59s CPU      3.64s WALL (      10 calls)
     sum_band     :      1.47s CPU      1.54s WALL (      10 calls)
     v_of_rho     :      0.62s CPU      0.66s WALL (      11 calls)
     newd         :      0.53s CPU      0.61s WALL (      11 calls)
     mix_rho      :      0.04s CPU      0.04s WALL (      10 calls)

     Called by c_bands:
     init_us_2    :      0.09s CPU      0.09s WALL (     924 calls)
     cegterg      :      3.14s CPU      3.18s WALL (     440 calls)

     Called by *egterg:
     cdiaghg      :      0.16s CPU      0.16s WALL (    1569 calls)
     h_psi        :      2.82s CPU      2.86s WALL (    1613 calls)
     s_psi        :      0.04s CPU      0.04s WALL (    1613 calls)
     g_psi        :      0.02s CPU      0.02s WALL (    1129 calls)

     Called by h_psi:
     h_psi:calbec :      0.06s CPU      0.06s WALL (    1613 calls)
     vloc_psi     :      2.70s CPU      2.74s WALL (    1613 calls)
     add_vuspsi   :      0.04s CPU      0.05s WALL (    1613 calls)

     General routines
     calbec       :      0.08s CPU      0.08s WALL (    2053 calls)
     fft          :      0.25s CPU      0.26s WALL (     269 calls)
     ffts         :      0.01s CPU      0.01s WALL (      42 calls)
     fftw         :      2.90s CPU      2.93s WALL (   32514 calls)
     interpolate  :      0.03s CPU      0.03s WALL (      22 calls)

     Parallel routines

     PWSCF        :      6.95s CPU      7.19s WALL


   This run was terminated on:   0:18: 3  19Apr2021            

=------------------------------------------------------------------------------=
   JOB DONE.
=------------------------------------------------------------------------------=
