
     Program PWSCF v.6.7MaX starts on 17Apr2021 at 21: 2:18 

     This program is part of the open-source Quantum ESPRESSO suite
     for quantum simulation of materials; please cite
         "P. Giannozzi et al., J. Phys.:Condens. Matter 21 395502 (2009);
         "P. Giannozzi et al., J. Phys.:Condens. Matter 29 465901 (2017);
          URL http://www.quantum-espresso.org", 
     in publications or presentations arising from this work. More details at
     http://www.quantum-espresso.org/quote

     Parallel version (MPI), running on     1 processors

     MPI processes distributed on     1 nodes
     Waiting for input...
     Reading input from standard input

     Current dimensions of program PWSCF are:
     Max number of different atomic species (ntypx) = 10
     Max number of k-points (npk) =  40000
     Max angular momentum in pseudopotentials (lmaxx) =  3
     file Fe.pbe-nd-rrkjus.UPF: wavefunction(s)  4S renormalized

     Subspace diagonalization in iterative solution of the eigenvalue problem:
     a serial algorithm will be used


     G-vector sticks info
     --------------------
     sticks:   dense  smooth     PW     G-vecs:    dense   smooth      PW
     Sum         333     169     63                 3805     1409     321



     bravais-lattice index     =            3
     lattice parameter (alat)  =       5.4200  a.u.
     unit-cell volume          =      79.6100 (a.u.)^3
     number of atoms/cell      =            1
     number of atomic types    =            1
     number of electrons       =         8.00
     number of Kohn-Sham states=            8
     kinetic-energy cutoff     =      25.0000  Ry
     charge density cutoff     =     200.0000  Ry
     scf convergence threshold =      1.0E-06
     mixing beta               =       0.7000
     number of iterations used =            8  plain     mixing
     Exchange-correlation=  SLA  PW   PBE  PBE
                           (   1   4   3   4   0   0   0)

     celldm(1)=   5.420000  celldm(2)=   0.000000  celldm(3)=   0.000000
     celldm(4)=   0.000000  celldm(5)=   0.000000  celldm(6)=   0.000000

     crystal axes: (cart. coord. in units of alat)
               a(1) = (   0.500000   0.500000   0.500000 )  
               a(2) = (  -0.500000   0.500000   0.500000 )  
               a(3) = (  -0.500000  -0.500000   0.500000 )  

     reciprocal axes: (cart. coord. in units 2 pi/alat)
               b(1) = (  1.000000  0.000000  1.000000 )  
               b(2) = ( -1.000000  1.000000  0.000000 )  
               b(3) = (  0.000000 -1.000000  1.000000 )  


     PseudoPot. # 1 for Fe read from file:
     /home/test/QE-2021/pseudo/Fe.pbe-nd-rrkjus.UPF
     MD5 check sum: 398036227a04b607635f6f5e8dfd8242
     Pseudo is Ultrasoft + core correction, Zval =  8.0
     Generated by new atomic code, or converted to UPF format
     Using radial grid of  957 points,  6 beta functions with: 
                l(1) =   0
                l(2) =   0
                l(3) =   1
                l(4) =   1
                l(5) =   2
                l(6) =   2
     Q(r) pseudized with 0 coefficients 


     atomic species   valence    mass     pseudopotential
        Fe             8.00     1.00000     Fe( 1.00)

     Starting magnetic structure 
     atomic species   magnetization
        Fe           0.600

     48 Sym. Ops., with inversion, found



   Cartesian axes

     site n.     atom                  positions (alat units)
         1           Fe  tau(   1) = (   0.0000000   0.0000000   0.0000000  )

     number of k points=    26  Marzari-Vanderbilt smearing, width (Ry)=  0.0100
                       cart. coord. in units 2pi/alat
        k(    1) = (   0.0000000   0.0000000   0.1250000), wk =   0.0117188
        k(    2) = (   0.0000000  -0.1250000   0.2500000), wk =   0.0468750
        k(    3) = (   0.0000000  -0.2500000   0.3750000), wk =   0.0468750
        k(    4) = (   0.0000000  -0.3750000   0.5000000), wk =   0.0468750
        k(    5) = (  -0.1250000   0.1250000   0.1250000), wk =   0.0156250
        k(    6) = (  -0.1250000  -0.1250000   0.3750000), wk =   0.0468750
        k(    7) = (  -0.1250000  -0.2500000   0.5000000), wk =   0.0937500
        k(    8) = (  -0.1250000   0.6250000  -0.3750000), wk =   0.0468750
        k(    9) = (  -0.2500000   0.2500000   0.1250000), wk =   0.0468750
        k(   10) = (  -0.2500000   0.7500000  -0.3750000), wk =   0.0468750
        k(   11) = (  -0.3750000   0.3750000   0.1250000), wk =   0.0468750
        k(   12) = (  -0.3750000   0.2500000   0.2500000), wk =   0.0468750
        k(   13) = (   0.5000000  -0.5000000   0.1250000), wk =   0.0234375
        k(   14) = (   0.5000000  -0.6250000   0.2500000), wk =   0.0937500
        k(   15) = (   0.3750000  -0.6250000   0.3750000), wk =   0.0156250
        k(   16) = (   0.0000000   0.0000000   0.3750000), wk =   0.0117188
        k(   17) = (   0.0000000  -0.1250000   0.5000000), wk =   0.0468750
        k(   18) = (   0.0000000  -0.2500000   0.6250000), wk =   0.0468750
        k(   19) = (  -0.1250000  -0.1250000   0.6250000), wk =   0.0468750
        k(   20) = (  -0.1250000   0.7500000  -0.2500000), wk =   0.0468750
        k(   21) = (   0.6250000  -0.6250000   0.3750000), wk =   0.0156250
        k(   22) = (   0.5000000  -0.5000000   0.3750000), wk =   0.0234375
        k(   23) = (   0.0000000   0.0000000   0.6250000), wk =   0.0117188
        k(   24) = (   0.0000000  -0.1250000   0.7500000), wk =   0.0468750
        k(   25) = (  -0.1250000   0.8750000  -0.1250000), wk =   0.0156250
        k(   26) = (   0.0000000   0.0000000   0.8750000), wk =   0.0117188

     Dense  grid:     3805 G-vectors     FFT dimensions: (  24,  24,  24)

     Smooth grid:     1409 G-vectors     FFT dimensions: (  15,  15,  15)

     Estimated max dynamical RAM per process >      17.39 MB

     Check: negative core charge=   -0.000022
     Generating pointlists ...
     new r_m :   0.3572 (alat units)  1.9362 (a.u.) for type    1

     Initial potential from superposition of free atoms

     starting charge    7.99937, renormalised to    8.00000
     Starting wfcs are    6 randomized atomic wfcs +    2 random wfcs

     total cpu time spent up to now is        0.4 secs

     Self-consistent Calculation

     iteration #  1     ecut=    25.00 Ry     beta= 0.70
     Davidson diagonalization with overlap
     ethr =  1.00E-02,  avg # of iterations =  4.3

     total cpu time spent up to now is        0.7 secs

     total energy              =     -55.64988103 Ry
     estimated scf accuracy    <       0.31772410 Ry

     total magnetization       =     2.94 Bohr mag/cell
     absolute magnetization    =     2.94 Bohr mag/cell

     iteration #  2     ecut=    25.00 Ry     beta= 0.70
     Davidson diagonalization with overlap
     ethr =  3.97E-03,  avg # of iterations =  2.0

     total cpu time spent up to now is        0.9 secs

     total energy              =     -55.73163976 Ry
     estimated scf accuracy    <       0.31448285 Ry

     total magnetization       =     2.56 Bohr mag/cell
     absolute magnetization    =     2.61 Bohr mag/cell

     iteration #  3     ecut=    25.00 Ry     beta= 0.70
     Davidson diagonalization with overlap
     ethr =  3.93E-03,  avg # of iterations =  1.2

     total cpu time spent up to now is        1.1 secs

     total energy              =     -55.79872303 Ry
     estimated scf accuracy    <       0.00255168 Ry

     total magnetization       =     2.58 Bohr mag/cell
     absolute magnetization    =     2.64 Bohr mag/cell

     iteration #  4     ecut=    25.00 Ry     beta= 0.70
     Davidson diagonalization with overlap
     ethr =  3.19E-05,  avg # of iterations =  4.8

     total cpu time spent up to now is        1.4 secs

     total energy              =     -55.80173688 Ry
     estimated scf accuracy    <       0.00015856 Ry

     total magnetization       =     2.40 Bohr mag/cell
     absolute magnetization    =     2.56 Bohr mag/cell

     iteration #  5     ecut=    25.00 Ry     beta= 0.70
     Davidson diagonalization with overlap
     ethr =  1.98E-06,  avg # of iterations =  5.5

     total cpu time spent up to now is        1.6 secs

     total energy              =     -55.80187596 Ry
     estimated scf accuracy    <       0.00002664 Ry

     total magnetization       =     2.36 Bohr mag/cell
     absolute magnetization    =     2.53 Bohr mag/cell

     iteration #  6     ecut=    25.00 Ry     beta= 0.70
     Davidson diagonalization with overlap
     ethr =  3.33E-07,  avg # of iterations =  2.0

     total cpu time spent up to now is        1.8 secs

     total energy              =     -55.80183546 Ry
     estimated scf accuracy    <       0.00001327 Ry

     total magnetization       =     2.34 Bohr mag/cell
     absolute magnetization    =     2.51 Bohr mag/cell

     iteration #  7     ecut=    25.00 Ry     beta= 0.70
     Davidson diagonalization with overlap
     ethr =  1.66E-07,  avg # of iterations =  2.7

     total cpu time spent up to now is        2.1 secs

     total energy              =     -55.80194054 Ry
     estimated scf accuracy    <       0.00000131 Ry

     total magnetization       =     2.30 Bohr mag/cell
     absolute magnetization    =     2.46 Bohr mag/cell

     iteration #  8     ecut=    25.00 Ry     beta= 0.70
     Davidson diagonalization with overlap
     ethr =  1.64E-08,  avg # of iterations =  4.2

     Magnetic moment per site:
     atom:    1    charge:    6.4876    magn:    2.3644    constr:    0.0000

     total cpu time spent up to now is        2.3 secs

     End of self-consistent calculation

 ------ SPIN UP ------------


          k = 0.0000 0.0000 0.1250 (   169 PWs)   bands (ev):

     5.0579  10.6143  10.6143  10.6973  11.6090  11.7958  35.6575  36.9565

          k = 0.0000-0.1250 0.2500 (   168 PWs)   bands (ev):

     6.2285  10.3615  10.5427  11.2853  11.3914  11.8902  31.3311  34.6258

          k = 0.0000-0.2500 0.3750 (   169 PWs)   bands (ev):

     7.8229   9.9851  10.6104  11.6127  12.0785  12.2502  25.6440  32.2804

          k = 0.0000-0.3750 0.5000 (   168 PWs)   bands (ev):

     8.2403   9.7296  11.3242  11.7585  13.0259  13.5613  20.9177  30.9422

          k =-0.1250 0.1250 0.1250 (   171 PWs)   bands (ev):

     5.6635  10.4203  10.4203  11.1856  11.6813  11.6813  33.8175  33.8175

          k =-0.1250-0.1250 0.3750 (   167 PWs)   bands (ev):

     7.6482  10.1420  10.3581  11.2904  11.9612  12.2958  28.5964  29.5411

          k =-0.1250-0.2500 0.5000 (   170 PWs)   bands (ev):

     8.6459   9.8604  10.4217  11.5847  12.3341  14.0477  23.4911  27.3558

          k =-0.1250 0.6250-0.3750 (   170 PWs)   bands (ev):

     8.6650   9.8594  10.5741  11.6781  12.6906  16.0945  20.1154  26.6754

          k =-0.2500 0.2500 0.1250 (   167 PWs)   bands (ev):

     7.2272  10.0329  10.2339  11.6334  11.7964  12.1662  28.5118  31.5441

          k =-0.2500 0.7500-0.3750 (   167 PWs)   bands (ev):

     9.3351   9.5662  10.0934  11.8773  12.3154  17.2734  21.6297  22.8640

          k =-0.3750 0.3750 0.1250 (   170 PWs)   bands (ev):

     8.3159   9.7018  11.0273  11.7785  11.8857  13.5687  23.1094  29.8835

          k =-0.3750 0.2500 0.2500 (   170 PWs)   bands (ev):

     8.6614   9.7638   9.9732  11.7120  11.9218  13.7616  26.0648  26.8189

          k = 0.5000-0.5000 0.1250 (   170 PWs)   bands (ev):

     8.3579   9.5746  11.8351  11.9221  11.9978  15.0067  20.0025  29.2739

          k = 0.5000-0.6250 0.2500 (   167 PWs)   bands (ev):

     8.9666   9.6131  10.6018  11.8479  12.0216  16.2214  21.4531  25.2817

          k = 0.3750-0.6250 0.3750 (   161 PWs)   bands (ev):

     9.2730   9.9676   9.9676  11.9784  11.9784  19.7134  19.7134  22.0399

          k = 0.0000 0.0000 0.3750 (   164 PWs)   bands (ev):

     7.2519  10.6465  10.7645  10.7645  11.2976  12.2434  31.4387  32.4566

          k = 0.0000-0.1250 0.5000 (   169 PWs)   bands (ev):

     8.5107   9.9364  10.6327  11.2521  12.1392  13.1242  26.4976  29.9055

          k = 0.0000-0.2500 0.6250 (   171 PWs)   bands (ev):

     8.7537   9.8893  10.4444  11.4452  12.9483  15.6528  21.4520  28.3221

          k =-0.1250-0.1250 0.6250 (   171 PWs)   bands (ev):

     9.0692   9.3411  10.7062  11.6367  12.5393  15.5053  24.4099  24.9784

          k =-0.1250 0.7500-0.2500 (   163 PWs)   bands (ev):

     9.0018   9.3623  10.5236  11.9304  12.7638  18.5186  20.6199  24.0202

          k = 0.6250-0.6250 0.3750 (   165 PWs)   bands (ev):

     9.6015   9.6015   9.7977  11.9050  11.9050  16.1850  24.4535  24.4535

          k = 0.5000-0.5000 0.3750 (   162 PWs)   bands (ev):

     9.4982   9.5700  10.2199  11.9381  11.9454  19.0186  20.7629  23.9001

          k = 0.0000 0.0000 0.6250 (   168 PWs)   bands (ev):

     8.8630   9.2881  11.5060  11.5060  12.1717  14.8696  27.0258  27.0258

          k = 0.0000-0.1250 0.7500 (   168 PWs)   bands (ev):

     8.7410   8.8669  11.6361  11.9044  12.8411  17.9880  22.6725  25.2479

          k =-0.1250 0.8750-0.1250 (   167 PWs)   bands (ev):

     8.6047   8.6047  11.7387  12.6944  12.6944  21.3689  21.3689  22.4307

          k = 0.0000 0.0000 0.8750 (   172 PWs)   bands (ev):

     8.3507   8.3545  12.6561  12.6561  12.8073  20.7687  23.2806  23.2806

 ------ SPIN DOWN ----------


          k = 0.0000 0.0000 0.1250 (   169 PWs)   bands (ev):

     5.1300  12.8364  12.8364  12.9442  14.6558  14.9082  35.5511  36.8158

          k = 0.0000-0.1250 0.2500 (   168 PWs)   bands (ev):

     6.3309  12.5190  12.7071  13.5983  14.2994  15.0138  31.7609  34.7233

          k = 0.0000-0.2500 0.3750 (   169 PWs)   bands (ev):

     8.2856  12.0553  12.4078  14.3570  14.6963  15.1278  26.4725  32.3728

          k = 0.0000-0.3750 0.5000 (   168 PWs)   bands (ev):

     9.5761  11.7443  12.9069  14.5658  15.4638  15.6045  22.2230  30.9912

          k =-0.1250 0.1250 0.1250 (   171 PWs)   bands (ev):

     5.7442  12.6008  12.6008  13.4739  14.7403  14.7403  34.0038  34.0038

          k =-0.1250-0.1250 0.3750 (   167 PWs)   bands (ev):

     7.9106  12.2949  12.4034  14.0182  14.4348  15.2336  29.2389  30.0823

          k =-0.1250-0.2500 0.5000 (   170 PWs)   bands (ev):

     9.6757  11.8466  12.2252  14.2642  15.1114  16.1509  24.4468  27.9544

          k =-0.1250 0.6250-0.3750 (   170 PWs)   bands (ev):

    10.2255  11.8515  12.2712  14.4192  15.3313  17.4801  21.4957  27.2572

          k =-0.2500 0.2500 0.1250 (   167 PWs)   bands (ev):

     7.4126  12.1150  12.2689  14.5002  14.5897  14.8970  29.1240  31.8442

          k =-0.2500 0.7500-0.3750 (   167 PWs)   bands (ev):

    10.9164  11.4481  11.9373  14.5508  15.0266  18.7117  22.6897  23.6847

          k =-0.3750 0.3750 0.1250 (   170 PWs)   bands (ev):

     9.2656  11.6976  12.3207  14.6808  15.0379  15.7517  24.1121  30.1541

          k =-0.3750 0.2500 0.2500 (   170 PWs)   bands (ev):

     9.2119  11.7115  11.8171  14.6674  15.0282  15.9342  26.7990  27.4429

          k = 0.5000-0.5000 0.1250 (   170 PWs)   bands (ev):

     9.8074  11.5380  13.0270  14.7512  15.0993  16.5740  21.4598  29.5148

          k = 0.5000-0.6250 0.2500 (   167 PWs)   bands (ev):

    10.4072  11.4792  12.0006  14.8058  15.0983  17.7909  22.5430  25.9334

          k = 0.3750-0.6250 0.3750 (   161 PWs)   bands (ev):

    11.0041  11.5732  11.5732  14.9824  14.9824  20.8315  20.8315  22.9506

          k = 0.0000 0.0000 0.3750 (   164 PWs)   bands (ev):

     7.4317  12.9243  12.9243  13.3562  13.6249  15.3132  31.8386  33.0201

          k = 0.0000-0.1250 0.5000 (   169 PWs)   bands (ev):

     9.1575  12.2103  12.7580  13.6084  14.5673  15.6922  27.2719  30.5051

          k = 0.0000-0.2500 0.6250 (   171 PWs)   bands (ev):

    10.3182  11.7724  12.5311  13.9452  15.5139  17.1616  22.5836  28.8588

          k =-0.1250-0.1250 0.6250 (   171 PWs)   bands (ev):

    10.4246  11.4986  12.8223  13.9959  15.0711  17.1789  25.3003  25.6494

          k =-0.1250 0.7500-0.2500 (   163 PWs)   bands (ev):

    10.9169  11.2672  12.5551  14.3534  15.3051  19.6292  21.7368  24.7334

          k = 0.6250-0.6250 0.3750 (   165 PWs)   bands (ev):

    10.7579  11.4003  11.4003  15.0277  15.0277  17.8717  25.2156  25.2158

          k = 0.5000-0.5000 0.3750 (   162 PWs)   bands (ev):

    11.0718  11.3117  11.6753  15.0603  15.1319  20.1398  21.8552  24.6660

          k = 0.0000 0.0000 0.6250 (   168 PWs)   bands (ev):

    10.1546  11.5901  13.7067  13.7067  14.6246  16.6322  27.5900  27.5900

          k = 0.0000-0.1250 0.7500 (   168 PWs)   bands (ev):

    10.6229  10.9334  13.8850  14.1781  15.3895  19.0344  23.4310  25.7048

          k =-0.1250 0.8750-0.1250 (   167 PWs)   bands (ev):

    10.6289  10.6289  13.9597  15.1830  15.1830  22.0782  22.0782  22.9972

          k = 0.0000 0.0000 0.8750 (   172 PWs)   bands (ev):

    10.3526  10.4174  15.1255  15.1255  15.3576  21.2879  23.5549  23.5549

     the Fermi energy is    12.9160 ev

!    total energy              =     -55.80194619 Ry
     estimated scf accuracy    <       0.00000045 Ry
     smearing contrib. (-TS)   =       0.00010162 Ry
     internal energy E=F+TS    =     -55.80204781 Ry

     The total energy is F=E-TS. E is the sum of the following terms:
     one-electron contribution =       6.88823869 Ry
     hartree contribution      =       6.72109477 Ry
     xc contribution           =     -26.43888291 Ry
     ewald contribution        =     -42.97249836 Ry

     total magnetization       =     2.29 Bohr mag/cell
     absolute magnetization    =     2.45 Bohr mag/cell

     convergence has been achieved in   8 iterations

     Writing output data file /tmp/QE/fe.save/

     init_run     :      0.50s CPU      0.29s WALL (       1 calls)
     electrons    :      4.85s CPU      1.90s WALL (       1 calls)

     Called by init_run:
     wfcinit      :      0.11s CPU      0.04s WALL (       1 calls)
     potinit      :      0.01s CPU      0.01s WALL (       1 calls)
     hinit0       :      0.37s CPU      0.22s WALL (       1 calls)

     Called by electrons:
     c_bands      :      3.07s CPU      1.25s WALL (       8 calls)
     sum_band     :      1.04s CPU      0.38s WALL (       8 calls)
     v_of_rho     :      0.46s CPU      0.18s WALL (       9 calls)
     newd         :      0.23s CPU      0.09s WALL (       9 calls)
     mix_rho      :      0.04s CPU      0.01s WALL (       8 calls)

     Called by c_bands:
     init_us_2    :      0.17s CPU      0.07s WALL (     884 calls)
     cegterg      :      2.65s CPU      1.08s WALL (     416 calls)

     Called by *egterg:
     cdiaghg      :      0.60s CPU      0.27s WALL (    1804 calls)
     h_psi        :      1.63s CPU      0.65s WALL (    1856 calls)
     s_psi        :      0.08s CPU      0.03s WALL (    1856 calls)
     g_psi        :      0.03s CPU      0.01s WALL (    1388 calls)

     Called by h_psi:
     h_psi:calbec :      0.09s CPU      0.04s WALL (    1856 calls)
     vloc_psi     :      1.40s CPU      0.56s WALL (    1856 calls)
     add_vuspsi   :      0.10s CPU      0.04s WALL (    1856 calls)

     General routines
     calbec       :      0.11s CPU      0.04s WALL (    2272 calls)
     fft          :      0.17s CPU      0.07s WALL (     219 calls)
     ffts         :      0.00s CPU      0.00s WALL (      34 calls)
     fftw         :      1.05s CPU      0.41s WALL (   22664 calls)
     interpolate  :      0.02s CPU      0.01s WALL (      18 calls)

     Parallel routines

     PWSCF        :      5.51s CPU      2.33s WALL


   This run was terminated on:  21: 2:20  17Apr2021            

=------------------------------------------------------------------------------=
   JOB DONE.
=------------------------------------------------------------------------------=
