
     Program PWSCF v.6.3 starts on 15Sep2019 at 10:41: 3 

     This program is part of the open-source Quantum ESPRESSO suite
     for quantum simulation of materials; please cite
         "P. Giannozzi et al., J. Phys.:Condens. Matter 21 395502 (2009);
         "P. Giannozzi et al., J. Phys.:Condens. Matter 29 465901 (2017);
          URL http://www.quantum-espresso.org", 
     in publications or presentations arising from this work. More details at
     http://www.quantum-espresso.org/quote

     Parallel version (MPI), running on     1 processors

     MPI processes distributed on     1 nodes
     Waiting for input...
     Reading input from standard input

     Current dimensions of program PWSCF are:
     Max number of different atomic species (ntypx) = 10
     Max number of k-points (npk) =  40000
     Max angular momentum in pseudopotentials (lmaxx) =  3
               file Fe.pbe-nd-rrkjus.UPF: wavefunction(s)  4S renormalized

     Subspace diagonalization in iterative solution of the eigenvalue problem:
     a serial algorithm will be used


     G-vector sticks info
     --------------------
     sticks:   dense  smooth     PW     G-vecs:    dense   smooth      PW
     Sum         333     169     63                 3805     1409     321



     bravais-lattice index     =            3
     lattice parameter (alat)  =       5.4200  a.u.
     unit-cell volume          =      79.6100 (a.u.)^3
     number of atoms/cell      =            1
     number of atomic types    =            1
     number of electrons       =         8.00
     number of Kohn-Sham states=            8
     kinetic-energy cutoff     =      25.0000  Ry
     charge density cutoff     =     200.0000  Ry
     convergence threshold     =      1.0E-06
     mixing beta               =       0.7000
     number of iterations used =            8  plain     mixing
     Exchange-correlation      =  SLA  PW   PBE  PBE ( 1  4  3  4 0 0)

     celldm(1)=   5.420000  celldm(2)=   0.000000  celldm(3)=   0.000000
     celldm(4)=   0.000000  celldm(5)=   0.000000  celldm(6)=   0.000000

     crystal axes: (cart. coord. in units of alat)
               a(1) = (   0.500000   0.500000   0.500000 )  
               a(2) = (  -0.500000   0.500000   0.500000 )  
               a(3) = (  -0.500000  -0.500000   0.500000 )  

     reciprocal axes: (cart. coord. in units 2 pi/alat)
               b(1) = (  1.000000  0.000000  1.000000 )  
               b(2) = ( -1.000000  1.000000  0.000000 )  
               b(3) = (  0.000000 -1.000000  1.000000 )  


     PseudoPot. # 1 for Fe read from file:
     /home/matic/test.QE-2019/pseudo/Fe.pbe-nd-rrkjus.UPF
     MD5 check sum: 398036227a04b607635f6f5e8dfd8242
     Pseudo is Ultrasoft + core correction, Zval =  8.0
     Generated by new atomic code, or converted to UPF format
     Using radial grid of  957 points,  6 beta functions with: 
                l(1) =   0
                l(2) =   0
                l(3) =   1
                l(4) =   1
                l(5) =   2
                l(6) =   2
     Q(r) pseudized with 0 coefficients 


     atomic species   valence    mass     pseudopotential
        Fe             8.00     1.00000     Fe( 1.00)

     Starting magnetic structure 
     atomic species   magnetization
        Fe           0.600

     48 Sym. Ops., with inversion, found



   Cartesian axes

     site n.     atom                  positions (alat units)
         1           Fe  tau(   1) = (   0.0000000   0.0000000   0.0000000  )

     number of k points=    26  Marzari-Vanderbilt smearing, width (Ry)=  0.0100
                       cart. coord. in units 2pi/alat
        k(    1) = (   0.0000000   0.0000000   0.1250000), wk =   0.0117188
        k(    2) = (   0.0000000  -0.1250000   0.2500000), wk =   0.0468750
        k(    3) = (   0.0000000  -0.2500000   0.3750000), wk =   0.0468750
        k(    4) = (   0.0000000  -0.3750000   0.5000000), wk =   0.0468750
        k(    5) = (  -0.1250000   0.1250000   0.1250000), wk =   0.0156250
        k(    6) = (  -0.1250000  -0.1250000   0.3750000), wk =   0.0468750
        k(    7) = (  -0.1250000  -0.2500000   0.5000000), wk =   0.0937500
        k(    8) = (  -0.1250000   0.6250000  -0.3750000), wk =   0.0468750
        k(    9) = (  -0.2500000   0.2500000   0.1250000), wk =   0.0468750
        k(   10) = (  -0.2500000   0.7500000  -0.3750000), wk =   0.0468750
        k(   11) = (  -0.3750000   0.3750000   0.1250000), wk =   0.0468750
        k(   12) = (  -0.3750000   0.2500000   0.2500000), wk =   0.0468750
        k(   13) = (   0.5000000  -0.5000000   0.1250000), wk =   0.0234375
        k(   14) = (   0.5000000  -0.6250000   0.2500000), wk =   0.0937500
        k(   15) = (   0.3750000  -0.6250000   0.3750000), wk =   0.0156250
        k(   16) = (   0.0000000   0.0000000   0.3750000), wk =   0.0117188
        k(   17) = (   0.0000000  -0.1250000   0.5000000), wk =   0.0468750
        k(   18) = (   0.0000000  -0.2500000   0.6250000), wk =   0.0468750
        k(   19) = (  -0.1250000  -0.1250000   0.6250000), wk =   0.0468750
        k(   20) = (  -0.1250000   0.7500000  -0.2500000), wk =   0.0468750
        k(   21) = (   0.6250000  -0.6250000   0.3750000), wk =   0.0156250
        k(   22) = (   0.5000000  -0.5000000   0.3750000), wk =   0.0234375
        k(   23) = (   0.0000000   0.0000000   0.6250000), wk =   0.0117188
        k(   24) = (   0.0000000  -0.1250000   0.7500000), wk =   0.0468750
        k(   25) = (  -0.1250000   0.8750000  -0.1250000), wk =   0.0156250
        k(   26) = (   0.0000000   0.0000000   0.8750000), wk =   0.0117188

     Dense  grid:     3805 G-vectors     FFT dimensions: (  24,  24,  24)

     Smooth grid:     1409 G-vectors     FFT dimensions: (  15,  15,  15)

     Estimated max dynamical RAM per process >      17.23 MB
     Generating pointlists ...
     new r_m :   0.3572 (alat units)  1.9362 (a.u.) for type    1

     Check: negative/imaginary core charge=   -0.000022    0.000000

     Initial potential from superposition of free atoms

     starting charge    7.99937, renormalised to    8.00000
     Starting wfcs are    6 randomized atomic wfcs +    2 random wfcs

     total cpu time spent up to now is        0.6 secs

     Self-consistent Calculation

     iteration #  1     ecut=    25.00 Ry     beta= 0.70
     Davidson diagonalization with overlap
     ethr =  1.00E-02,  avg # of iterations =  4.1

     total cpu time spent up to now is        0.9 secs

     total energy              =     -55.64444116 Ry
     Harris-Foulkes estimate   =     -55.80030895 Ry
     estimated scf accuracy    <       0.32677540 Ry

     total magnetization       =     2.94 Bohr mag/cell
     absolute magnetization    =     2.94 Bohr mag/cell

     iteration #  2     ecut=    25.00 Ry     beta= 0.70
     Davidson diagonalization with overlap
     ethr =  4.08E-03,  avg # of iterations =  2.0

     total cpu time spent up to now is        1.2 secs

     total energy              =     -55.72213102 Ry
     Harris-Foulkes estimate   =     -55.88138087 Ry
     estimated scf accuracy    <       0.35176967 Ry

     total magnetization       =     2.56 Bohr mag/cell
     absolute magnetization    =     2.61 Bohr mag/cell

     iteration #  3     ecut=    25.00 Ry     beta= 0.70
     Davidson diagonalization with overlap
     ethr =  4.08E-03,  avg # of iterations =  1.2

     total cpu time spent up to now is        1.5 secs

     total energy              =     -55.79851924 Ry
     Harris-Foulkes estimate   =     -55.79252648 Ry
     estimated scf accuracy    <       0.00279556 Ry

     total magnetization       =     2.58 Bohr mag/cell
     absolute magnetization    =     2.65 Bohr mag/cell

     iteration #  4     ecut=    25.00 Ry     beta= 0.70
     Davidson diagonalization with overlap
     ethr =  3.49E-05,  avg # of iterations =  3.2

     total cpu time spent up to now is        1.9 secs

     total energy              =     -55.80176034 Ry
     Harris-Foulkes estimate   =     -55.80166169 Ry
     estimated scf accuracy    <       0.00011461 Ry

     total magnetization       =     2.41 Bohr mag/cell
     absolute magnetization    =     2.57 Bohr mag/cell

     iteration #  5     ecut=    25.00 Ry     beta= 0.70
     Davidson diagonalization with overlap
     ethr =  1.43E-06,  avg # of iterations =  2.8

     total cpu time spent up to now is        2.2 secs

     total energy              =     -55.80186594 Ry
     Harris-Foulkes estimate   =     -55.80185399 Ry
     estimated scf accuracy    <       0.00003580 Ry

     total magnetization       =     2.36 Bohr mag/cell
     absolute magnetization    =     2.53 Bohr mag/cell

     iteration #  6     ecut=    25.00 Ry     beta= 0.70
     Davidson diagonalization with overlap
     ethr =  4.47E-07,  avg # of iterations =  1.3

     total cpu time spent up to now is        2.5 secs

     total energy              =     -55.80176608 Ry
     Harris-Foulkes estimate   =     -55.80188305 Ry
     estimated scf accuracy    <       0.00001702 Ry

     total magnetization       =     2.35 Bohr mag/cell
     absolute magnetization    =     2.51 Bohr mag/cell

     iteration #  7     ecut=    25.00 Ry     beta= 0.70
     Davidson diagonalization with overlap
     ethr =  2.13E-07,  avg # of iterations =  2.6

     total cpu time spent up to now is        2.8 secs

     total energy              =     -55.80194289 Ry
     Harris-Foulkes estimate   =     -55.80192703 Ry
     estimated scf accuracy    <       0.00000127 Ry

     total magnetization       =     2.29 Bohr mag/cell
     absolute magnetization    =     2.45 Bohr mag/cell

     iteration #  8     ecut=    25.00 Ry     beta= 0.70
     Davidson diagonalization with overlap
     ethr =  1.59E-08,  avg # of iterations =  2.6

     total cpu time spent up to now is        3.1 secs

     total energy              =     -55.80194301 Ry
     Harris-Foulkes estimate   =     -55.80194529 Ry
     estimated scf accuracy    <       0.00000120 Ry

     total magnetization       =     2.30 Bohr mag/cell
     absolute magnetization    =     2.46 Bohr mag/cell

     iteration #  9     ecut=    25.00 Ry     beta= 0.70
     Davidson diagonalization with overlap
     ethr =  1.51E-08,  avg # of iterations =  2.1

     Magnetic moment per site:
     atom:    1    charge:    6.4869    magn:    2.3617    constr:    0.0000

     total cpu time spent up to now is        3.4 secs

     End of self-consistent calculation

 ------ SPIN UP ------------


          k = 0.0000 0.0000 0.1250 (   169 PWs)   bands (ev):

     5.0562  10.6185  10.6185  10.7016  11.6122  11.7991  35.6553  36.9546

          k = 0.0000-0.1250 0.2500 (   168 PWs)   bands (ev):

     6.2269  10.3655  10.5464  11.2897  11.3947  11.8935  31.3301  34.6238

          k = 0.0000-0.2500 0.3750 (   169 PWs)   bands (ev):

     7.8225   9.9889  10.6123  11.6164  12.0815  12.2549  25.6438  32.2782

          k = 0.0000-0.3750 0.5000 (   168 PWs)   bands (ev):

     8.2418   9.7333  11.3265  11.7622  13.0309  13.5612  20.9186  30.9397

          k =-0.1250 0.1250 0.1250 (   171 PWs)   bands (ev):

     5.6618  10.4244  10.4244  11.1899  11.6846  11.6846  33.8160  33.8160

          k =-0.1250-0.1250 0.3750 (   167 PWs)   bands (ev):

     7.6471  10.1452  10.3618  11.2941  11.9653  12.2992  28.5958  29.5405

          k =-0.1250-0.2500 0.5000 (   170 PWs)   bands (ev):

     8.6470   9.8634  10.4241  11.5885  12.3381  14.0499  23.4912  27.3552

          k =-0.1250 0.6250-0.3750 (   170 PWs)   bands (ev):

     8.6669   9.8629  10.5760  11.6819  12.6950  16.0948  20.1165  26.6747

          k =-0.2500 0.2500 0.1250 (   167 PWs)   bands (ev):

     7.2259  10.0367  10.2372  11.6369  11.7998  12.1705  28.5112  31.5427

          k =-0.2500 0.7500-0.3750 (   167 PWs)   bands (ev):

     9.3375   9.5684  10.0959  11.8814  12.3196  17.2742  21.6298  22.8640

          k =-0.3750 0.3750 0.1250 (   170 PWs)   bands (ev):

     8.3169   9.7054  11.0287  11.7823  11.8891  13.5720  23.1096  29.8820

          k =-0.3750 0.2500 0.2500 (   170 PWs)   bands (ev):

     8.6616   9.7668   9.9762  11.7156  11.9253  13.7650  26.0644  26.8183

          k = 0.5000-0.5000 0.1250 (   170 PWs)   bands (ev):

     8.3597   9.5782  11.8388  11.9255  12.0002  15.0075  20.0038  29.2723

          k = 0.5000-0.6250 0.2500 (   167 PWs)   bands (ev):

     8.9688   9.6163  10.6039  11.8516  12.0252  16.2229  21.4535  25.2812

          k = 0.3750-0.6250 0.3750 (   161 PWs)   bands (ev):

     9.2760   9.9700   9.9700  11.9821  11.9821  19.7138  19.7138  22.0402

          k = 0.0000 0.0000 0.3750 (   164 PWs)   bands (ev):

     7.2505  10.6492  10.7685  10.7685  11.3020  12.2466  31.4371  32.4563

          k = 0.0000-0.1250 0.5000 (   169 PWs)   bands (ev):

     8.5105   9.9387  10.6367  11.2560  12.1439  13.1263  26.4973  29.9053

          k = 0.0000-0.2500 0.6250 (   171 PWs)   bands (ev):

     8.7553   9.8910  10.4483  11.4490  12.9533  15.6531  21.4525  28.3217

          k =-0.1250-0.1250 0.6250 (   171 PWs)   bands (ev):

     9.0703   9.3431  10.7100  11.6409  12.5439  15.5061  24.4098  24.9781

          k =-0.1250 0.7500-0.2500 (   163 PWs)   bands (ev):

     9.0035   9.3640  10.5273  11.9346  12.7685  18.5185  20.6204  24.0199

          k = 0.6250-0.6250 0.3750 (   165 PWs)   bands (ev):

     9.6046   9.6046   9.7990  11.9086  11.9086  16.1869  24.4532  24.4532

          k = 0.5000-0.5000 0.3750 (   162 PWs)   bands (ev):

     9.5008   9.5731  10.2225  11.9416  11.9489  19.0192  20.7635  23.8997

          k = 0.0000 0.0000 0.6250 (   168 PWs)   bands (ev):

     8.8637   9.2902  11.5102  11.5102  12.1765  14.8703  27.0255  27.0255

          k = 0.0000-0.1250 0.7500 (   168 PWs)   bands (ev):

     8.7427   8.8685  11.6404  11.9086  12.8460  17.9878  22.6723  25.2473

          k =-0.1250 0.8750-0.1250 (   167 PWs)   bands (ev):

     8.6063   8.6063  11.7430  12.6992  12.6992  21.3684  21.3684  22.4302

          k = 0.0000 0.0000 0.8750 (   172 PWs)   bands (ev):

     8.3523   8.3561  12.6609  12.6609  12.8123  20.7679  23.2796  23.2796

 ------ SPIN DOWN ----------


          k = 0.0000 0.0000 0.1250 (   169 PWs)   bands (ev):

     5.1316  12.8369  12.8369  12.9447  14.6579  14.9102  35.5530  36.8173

          k = 0.0000-0.1250 0.2500 (   168 PWs)   bands (ev):

     6.3324  12.5196  12.7078  13.5989  14.3014  15.0158  31.7626  34.7251

          k = 0.0000-0.2500 0.3750 (   169 PWs)   bands (ev):

     8.2871  12.0559  12.4089  14.3586  14.6968  15.1298  26.4739  32.3748

          k = 0.0000-0.3750 0.5000 (   168 PWs)   bands (ev):

     9.5774  11.7449  12.9086  14.5673  15.4657  15.6051  22.2243  30.9931

          k =-0.1250 0.1250 0.1250 (   171 PWs)   bands (ev):

     5.7457  12.6014  12.6014  13.4745  14.7423  14.7423  34.0056  34.0056

          k =-0.1250-0.1250 0.3750 (   167 PWs)   bands (ev):

     7.9121  12.2959  12.4041  14.0199  14.4354  15.2356  29.2406  30.0837

          k =-0.1250-0.2500 0.5000 (   170 PWs)   bands (ev):

     9.6771  11.8477  12.2262  14.2656  15.1127  16.1521  24.4483  27.9559

          k =-0.1250 0.6250-0.3750 (   170 PWs)   bands (ev):

    10.2267  11.8522  12.2729  14.4206  15.3324  17.4815  21.4970  27.2586

          k =-0.2500 0.2500 0.1250 (   167 PWs)   bands (ev):

     7.4141  12.1156  12.2697  14.5008  14.5915  14.8990  29.1256  31.8460

          k =-0.2500 0.7500-0.3750 (   167 PWs)   bands (ev):

    10.9176  11.4496  11.9384  14.5520  15.0279  18.7131  22.6911  23.6859

          k =-0.3750 0.3750 0.1250 (   170 PWs)   bands (ev):

     9.2669  11.6982  12.3219  14.6825  15.0399  15.7524  24.1135  30.1559

          k =-0.3750 0.2500 0.2500 (   170 PWs)   bands (ev):

     9.2133  11.7125  11.8178  14.6691  15.0301  15.9350  26.8006  27.4443

          k = 0.5000-0.5000 0.1250 (   170 PWs)   bands (ev):

     9.8086  11.5386  13.0284  14.7528  15.1013  16.5748  21.4611  29.5166

          k = 0.5000-0.6250 0.2500 (   167 PWs)   bands (ev):

    10.4084  11.4800  12.0018  14.8075  15.1001  17.7919  22.5443  25.9349

          k = 0.3750-0.6250 0.3750 (   161 PWs)   bands (ev):

    11.0049  11.5744  11.5744  14.9841  14.9841  20.8328  20.8328  22.9518

          k = 0.0000 0.0000 0.3750 (   164 PWs)   bands (ev):

     7.4333  12.9249  12.9249  13.3583  13.6254  15.3152  31.8407  33.0214

          k = 0.0000-0.1250 0.5000 (   169 PWs)   bands (ev):

     9.1591  12.2119  12.7586  13.6094  14.5679  15.6941  27.2734  30.5061

          k = 0.0000-0.2500 0.6250 (   171 PWs)   bands (ev):

    10.3197  11.7742  12.5318  13.9465  15.5145  17.1633  22.5849  28.8598

          k =-0.1250-0.1250 0.6250 (   171 PWs)   bands (ev):

    10.4262  11.5004  12.8231  13.9968  15.0719  17.1804  25.3018  25.6507

          k =-0.1250 0.7500-0.2500 (   163 PWs)   bands (ev):

    10.9186  11.2691  12.5558  14.3543  15.3058  19.6308  21.7381  24.7347

          k = 0.6250-0.6250 0.3750 (   165 PWs)   bands (ev):

    10.7591  11.4011  11.4011  15.0297  15.0297  17.8727  25.2172  25.2172

          k = 0.5000-0.5000 0.3750 (   162 PWs)   bands (ev):

    11.0727  11.3125  11.6762  15.0622  15.1339  20.1411  21.8564  24.6675

          k = 0.0000 0.0000 0.6250 (   168 PWs)   bands (ev):

    10.1564  11.5921  13.7074  13.7074  14.6251  16.6339  27.5910  27.5910

          k = 0.0000-0.1250 0.7500 (   168 PWs)   bands (ev):

    10.6248  10.9354  13.8857  14.1788  15.3900  19.0359  23.4322  25.7058

          k =-0.1250 0.8750-0.1250 (   167 PWs)   bands (ev):

    10.6308  10.6308  13.9603  15.1836  15.1836  22.0795  22.0795  22.9983

          k = 0.0000 0.0000 0.8750 (   172 PWs)   bands (ev):

    10.3546  10.4194  15.1261  15.1261  15.3582  21.2892  23.5560  23.5560

     the Fermi energy is    12.9186 ev

!    total energy              =     -55.80194646 Ry
     Harris-Foulkes estimate   =     -55.80194604 Ry
     estimated scf accuracy    <       0.00000013 Ry

     The total energy is the sum of the following terms:

     one-electron contribution =       6.89020023 Ry
     hartree contribution      =       6.71708504 Ry
     xc contribution           =     -26.43683698 Ry
     ewald contribution        =     -42.97249836 Ry
     smearing contrib. (-TS)   =       0.00010362 Ry

     total magnetization       =     2.29 Bohr mag/cell
     absolute magnetization    =     2.45 Bohr mag/cell

     convergence has been achieved in   9 iterations

     Writing output data file fe.save/

     init_run     :      0.67s CPU      0.50s WALL (       1 calls)
     electrons    :      5.48s CPU      2.82s WALL (       1 calls)

     Called by init_run:
     wfcinit      :      0.09s CPU      0.05s WALL (       1 calls)
     potinit      :      0.04s CPU      0.04s WALL (       1 calls)
     hinit0       :      0.51s CPU      0.39s WALL (       1 calls)

     Called by electrons:
     c_bands      :      3.19s CPU      1.70s WALL (       9 calls)
     sum_band     :      1.10s CPU      0.51s WALL (       9 calls)
     v_of_rho     :      0.86s CPU      0.45s WALL (      10 calls)
     newd         :      0.30s CPU      0.15s WALL (      10 calls)
     mix_rho      :      0.04s CPU      0.02s WALL (       9 calls)

     Called by c_bands:
     init_us_2    :      0.19s CPU      0.10s WALL (     988 calls)
     cegterg      :      2.75s CPU      1.46s WALL (     468 calls)

     Called by sum_band:
     sum_band:bec :      0.01s CPU      0.00s WALL (     468 calls)
     addusdens    :      0.66s CPU      0.28s WALL (       9 calls)

     Called by *egterg:
     h_psi        :      1.49s CPU      0.77s WALL (    1663 calls)
     s_psi        :      0.08s CPU      0.04s WALL (    1663 calls)
     g_psi        :      0.05s CPU      0.03s WALL (    1143 calls)
     cdiaghg      :      0.82s CPU      0.48s WALL (    1611 calls)

     Called by h_psi:
     h_psi:pot    :      1.48s CPU      0.76s WALL (    1663 calls)
     h_psi:calbec :      0.09s CPU      0.05s WALL (    1663 calls)
     vloc_psi     :      1.27s CPU      0.66s WALL (    1663 calls)
     add_vuspsi   :      0.09s CPU      0.05s WALL (    1663 calls)

     General routines
     calbec       :      0.11s CPU      0.06s WALL (    2131 calls)
     fft          :      0.19s CPU      0.10s WALL (     246 calls)
     ffts         :      0.00s CPU      0.00s WALL (      38 calls)
     fftw         :      1.07s CPU      0.55s WALL (   23562 calls)
     interpolate  :      0.02s CPU      0.01s WALL (      20 calls)

     Parallel routines

     PWSCF        :     6.26s CPU         3.42s WALL


   This run was terminated on:  10:41: 6  15Sep2019            

=------------------------------------------------------------------------------=
   JOB DONE.
=------------------------------------------------------------------------------=
