
     Program PWSCF v.6.7MaX starts on 17Apr2021 at 21: 2:27 

     This program is part of the open-source Quantum ESPRESSO suite
     for quantum simulation of materials; please cite
         "P. Giannozzi et al., J. Phys.:Condens. Matter 21 395502 (2009);
         "P. Giannozzi et al., J. Phys.:Condens. Matter 29 465901 (2017);
          URL http://www.quantum-espresso.org", 
     in publications or presentations arising from this work. More details at
     http://www.quantum-espresso.org/quote

     Parallel version (MPI), running on     1 processors

     MPI processes distributed on     1 nodes
     Waiting for input...
     Reading input from standard input

     Current dimensions of program PWSCF are:
     Max number of different atomic species (ntypx) = 10
     Max number of k-points (npk) =  40000
     Max angular momentum in pseudopotentials (lmaxx) =  3
     file Fe.pbe-nd-rrkjus.UPF: wavefunction(s)  4S renormalized
     file Fe.pbe-nd-rrkjus.UPF: wavefunction(s)  4S renormalized

     Subspace diagonalization in iterative solution of the eigenvalue problem:
     a serial algorithm will be used


     G-vector sticks info
     --------------------
     sticks:   dense  smooth     PW     G-vecs:    dense   smooth      PW
     Sum         473     241     81                 7521     2721     515



     bravais-lattice index     =            1
     lattice parameter (alat)  =       5.4200  a.u.
     unit-cell volume          =     159.2201 (a.u.)^3
     number of atoms/cell      =            2
     number of atomic types    =            2
     number of electrons       =        16.00
     number of Kohn-Sham states=           12
     kinetic-energy cutoff     =      25.0000  Ry
     charge density cutoff     =     200.0000  Ry
     scf convergence threshold =      1.0E-06
     mixing beta               =       0.7000
     number of iterations used =            8  plain     mixing
     Exchange-correlation=  SLA  PW   PBE  PBE
                           (   1   4   3   4   0   0   0)

     celldm(1)=   5.420000  celldm(2)=   0.000000  celldm(3)=   0.000000
     celldm(4)=   0.000000  celldm(5)=   0.000000  celldm(6)=   0.000000

     crystal axes: (cart. coord. in units of alat)
               a(1) = (   1.000000   0.000000   0.000000 )  
               a(2) = (   0.000000   1.000000   0.000000 )  
               a(3) = (   0.000000   0.000000   1.000000 )  

     reciprocal axes: (cart. coord. in units 2 pi/alat)
               b(1) = (  1.000000  0.000000  0.000000 )  
               b(2) = (  0.000000  1.000000  0.000000 )  
               b(3) = (  0.000000  0.000000  1.000000 )  


     PseudoPot. # 1 for Fe read from file:
     /home/test/QE-2021/pseudo/Fe.pbe-nd-rrkjus.UPF
     MD5 check sum: 398036227a04b607635f6f5e8dfd8242
     Pseudo is Ultrasoft + core correction, Zval =  8.0
     Generated by new atomic code, or converted to UPF format
     Using radial grid of  957 points,  6 beta functions with: 
                l(1) =   0
                l(2) =   0
                l(3) =   1
                l(4) =   1
                l(5) =   2
                l(6) =   2
     Q(r) pseudized with 0 coefficients 


     PseudoPot. # 2 for Fe read from file:
     /home/test/QE-2021/pseudo/Fe.pbe-nd-rrkjus.UPF
     MD5 check sum: 398036227a04b607635f6f5e8dfd8242
     Pseudo is Ultrasoft + core correction, Zval =  8.0
     Generated by new atomic code, or converted to UPF format
     Using radial grid of  957 points,  6 beta functions with: 
                l(1) =   0
                l(2) =   0
                l(3) =   1
                l(4) =   1
                l(5) =   2
                l(6) =   2
     Q(r) pseudized with 0 coefficients 


     atomic species   valence    mass     pseudopotential
        Fe1            8.00     1.00000     Fe( 1.00)
        Fe2            8.00     1.00000     Fe( 1.00)

     Starting magnetic structure 
     atomic species   magnetization
        Fe1          0.600
        Fe2         -0.600

     48 Sym. Ops., with inversion, found



   Cartesian axes

     site n.     atom                  positions (alat units)
         1           Fe1 tau(   1) = (   0.0000000   0.0000000   0.0000000  )
         2           Fe2 tau(   2) = (   0.5000000   0.5000000   0.5000000  )

     number of k points=    20  Marzari-Vanderbilt smearing, width (Ry)=  0.0100
                       cart. coord. in units 2pi/alat
        k(    1) = (   0.0625000   0.0625000   0.0625000), wk =   0.0156250
        k(    2) = (   0.0625000   0.0625000   0.1875000), wk =   0.0468750
        k(    3) = (   0.0625000   0.0625000   0.3125000), wk =   0.0468750
        k(    4) = (   0.0625000   0.0625000   0.4375000), wk =   0.0468750
        k(    5) = (   0.0625000   0.1875000   0.1875000), wk =   0.0468750
        k(    6) = (   0.0625000   0.1875000   0.3125000), wk =   0.0937500
        k(    7) = (   0.0625000   0.1875000   0.4375000), wk =   0.0937500
        k(    8) = (   0.0625000   0.3125000   0.3125000), wk =   0.0468750
        k(    9) = (   0.0625000   0.3125000   0.4375000), wk =   0.0937500
        k(   10) = (   0.0625000   0.4375000   0.4375000), wk =   0.0468750
        k(   11) = (   0.1875000   0.1875000   0.1875000), wk =   0.0156250
        k(   12) = (   0.1875000   0.1875000   0.3125000), wk =   0.0468750
        k(   13) = (   0.1875000   0.1875000   0.4375000), wk =   0.0468750
        k(   14) = (   0.1875000   0.3125000   0.3125000), wk =   0.0468750
        k(   15) = (   0.1875000   0.3125000   0.4375000), wk =   0.0937500
        k(   16) = (   0.1875000   0.4375000   0.4375000), wk =   0.0468750
        k(   17) = (   0.3125000   0.3125000   0.3125000), wk =   0.0156250
        k(   18) = (   0.3125000   0.3125000   0.4375000), wk =   0.0468750
        k(   19) = (   0.3125000   0.4375000   0.4375000), wk =   0.0468750
        k(   20) = (   0.4375000   0.4375000   0.4375000), wk =   0.0156250

     Dense  grid:     7521 G-vectors     FFT dimensions: (  25,  25,  25)

     Smooth grid:     2721 G-vectors     FFT dimensions: (  18,  18,  18)

     Estimated max dynamical RAM per process >      33.84 MB

     Check: negative core charge=   -0.000022
     Generating pointlists ...
     new r_m :   0.3572 (alat units)  1.9362 (a.u.) for type    1
     new r_m :   0.3572 (alat units)  1.9362 (a.u.) for type    2

     Initial potential from superposition of free atoms

     starting charge   15.99873, renormalised to   16.00000
     Starting wfcs are   12 randomized atomic wfcs

     total cpu time spent up to now is        0.8 secs

     Self-consistent Calculation

     iteration #  1     ecut=    25.00 Ry     beta= 0.70
     Davidson diagonalization with overlap
     ethr =  1.00E-02,  avg # of iterations =  3.7

     total cpu time spent up to now is        1.7 secs

     total energy              =    -111.26260864 Ry
     estimated scf accuracy    <       0.61855871 Ry

     total magnetization       =     0.01 Bohr mag/cell
     absolute magnetization    =     5.83 Bohr mag/cell

     iteration #  2     ecut=    25.00 Ry     beta= 0.70
     Davidson diagonalization with overlap
     ethr =  3.87E-03,  avg # of iterations =  2.8

     total cpu time spent up to now is        2.4 secs

     total energy              =    -111.41757851 Ry
     estimated scf accuracy    <       0.49051175 Ry

     total magnetization       =    -0.05 Bohr mag/cell
     absolute magnetization    =     5.21 Bohr mag/cell

     iteration #  3     ecut=    25.00 Ry     beta= 0.70
     Davidson diagonalization with overlap
     ethr =  3.07E-03,  avg # of iterations =  1.6

     total cpu time spent up to now is        3.4 secs

     total energy              =    -111.50359387 Ry
     estimated scf accuracy    <       0.02630187 Ry

     total magnetization       =     0.23 Bohr mag/cell
     absolute magnetization    =     5.24 Bohr mag/cell

     iteration #  4     ecut=    25.00 Ry     beta= 0.70
     Davidson diagonalization with overlap
     ethr =  1.64E-04,  avg # of iterations =  2.8

     total cpu time spent up to now is        4.4 secs

     total energy              =    -111.50469248 Ry
     estimated scf accuracy    <       0.34558482 Ry

     total magnetization       =    -0.85 Bohr mag/cell
     absolute magnetization    =     5.08 Bohr mag/cell

     iteration #  5     ecut=    25.00 Ry     beta= 0.70
     Davidson diagonalization with overlap
     ethr =  1.64E-04,  avg # of iterations =  1.8

     total cpu time spent up to now is        5.5 secs

     total energy              =    -111.52088476 Ry
     estimated scf accuracy    <       0.00202231 Ry

     total magnetization       =     0.04 Bohr mag/cell
     absolute magnetization    =     4.81 Bohr mag/cell

     iteration #  6     ecut=    25.00 Ry     beta= 0.70
     Davidson diagonalization with overlap
     ethr =  1.26E-05,  avg # of iterations =  4.7

     total cpu time spent up to now is        6.6 secs

     total energy              =    -111.52502553 Ry
     estimated scf accuracy    <       0.00433244 Ry

     total magnetization       =     0.12 Bohr mag/cell
     absolute magnetization    =     4.40 Bohr mag/cell

     iteration #  7     ecut=    25.00 Ry     beta= 0.70
     Davidson diagonalization with overlap
     ethr =  1.26E-05,  avg # of iterations =  1.1

     total cpu time spent up to now is        7.3 secs

     total energy              =    -111.52440001 Ry
     estimated scf accuracy    <       0.00259317 Ry

     total magnetization       =     0.12 Bohr mag/cell
     absolute magnetization    =     4.27 Bohr mag/cell

     iteration #  8     ecut=    25.00 Ry     beta= 0.70
     Davidson diagonalization with overlap
     ethr =  1.26E-05,  avg # of iterations =  1.9

     total cpu time spent up to now is        7.9 secs

     total energy              =    -111.52518972 Ry
     estimated scf accuracy    <       0.00136027 Ry

     total magnetization       =     0.21 Bohr mag/cell
     absolute magnetization    =     4.14 Bohr mag/cell

     iteration #  9     ecut=    25.00 Ry     beta= 0.70
     Davidson diagonalization with overlap
     ethr =  8.50E-06,  avg # of iterations =  1.0

     total cpu time spent up to now is        8.5 secs

     total energy              =    -111.52529784 Ry
     estimated scf accuracy    <       0.00022558 Ry

     total magnetization       =     0.21 Bohr mag/cell
     absolute magnetization    =     4.18 Bohr mag/cell

     iteration # 10     ecut=    25.00 Ry     beta= 0.70
     Davidson diagonalization with overlap
     ethr =  1.41E-06,  avg # of iterations =  1.4

     total cpu time spent up to now is        9.2 secs

     total energy              =    -111.52527349 Ry
     estimated scf accuracy    <       0.00026531 Ry

     total magnetization       =     0.22 Bohr mag/cell
     absolute magnetization    =     4.18 Bohr mag/cell

     iteration # 11     ecut=    25.00 Ry     beta= 0.70
     Davidson diagonalization with overlap
     ethr =  1.41E-06,  avg # of iterations =  1.6

     total cpu time spent up to now is       10.0 secs

     total energy              =    -111.52533767 Ry
     estimated scf accuracy    <       0.00010800 Ry

     total magnetization       =     0.23 Bohr mag/cell
     absolute magnetization    =     4.13 Bohr mag/cell

     iteration # 12     ecut=    25.00 Ry     beta= 0.70
     Davidson diagonalization with overlap
     ethr =  6.75E-07,  avg # of iterations =  1.1

     total cpu time spent up to now is       11.0 secs

     total energy              =    -111.52514427 Ry
     estimated scf accuracy    <       0.00012414 Ry

     total magnetization       =     0.23 Bohr mag/cell
     absolute magnetization    =     4.14 Bohr mag/cell

     iteration # 13     ecut=    25.00 Ry     beta= 0.70
     Davidson diagonalization with overlap
     ethr =  6.75E-07,  avg # of iterations =  1.9

     total cpu time spent up to now is       11.6 secs

     total energy              =    -111.52500401 Ry
     estimated scf accuracy    <       0.00045962 Ry

     total magnetization       =     0.14 Bohr mag/cell
     absolute magnetization    =     4.15 Bohr mag/cell

     iteration # 14     ecut=    25.00 Ry     beta= 0.70
     Davidson diagonalization with overlap
     ethr =  6.75E-07,  avg # of iterations =  2.0

     total cpu time spent up to now is       12.3 secs

     total energy              =    -111.52513922 Ry
     estimated scf accuracy    <       0.00010106 Ry

     total magnetization       =    -0.00 Bohr mag/cell
     absolute magnetization    =     4.21 Bohr mag/cell

     iteration # 15     ecut=    25.00 Ry     beta= 0.70
     Davidson diagonalization with overlap
     ethr =  6.32E-07,  avg # of iterations =  1.8

     total cpu time spent up to now is       12.9 secs

     total energy              =    -111.52520040 Ry
     estimated scf accuracy    <       0.00002966 Ry

     total magnetization       =     0.01 Bohr mag/cell
     absolute magnetization    =     4.21 Bohr mag/cell

     iteration # 16     ecut=    25.00 Ry     beta= 0.70
     Davidson diagonalization with overlap
     ethr =  1.85E-07,  avg # of iterations =  2.0

     total cpu time spent up to now is       13.7 secs

     total energy              =    -111.52519045 Ry
     estimated scf accuracy    <       0.00009640 Ry

     total magnetization       =    -0.01 Bohr mag/cell
     absolute magnetization    =     4.21 Bohr mag/cell

     iteration # 17     ecut=    25.00 Ry     beta= 0.70
     Davidson diagonalization with overlap
     ethr =  1.85E-07,  avg # of iterations =  2.0

     total cpu time spent up to now is       14.4 secs

     total energy              =    -111.52521236 Ry
     estimated scf accuracy    <       0.00005911 Ry

     total magnetization       =    -0.02 Bohr mag/cell
     absolute magnetization    =     4.18 Bohr mag/cell

     iteration # 18     ecut=    25.00 Ry     beta= 0.70
     Davidson diagonalization with overlap
     ethr =  1.85E-07,  avg # of iterations =  3.0

     total cpu time spent up to now is       15.1 secs

     total energy              =    -111.52521632 Ry
     estimated scf accuracy    <       0.00005561 Ry

     total magnetization       =    -0.04 Bohr mag/cell
     absolute magnetization    =     4.14 Bohr mag/cell

     iteration # 19     ecut=    25.00 Ry     beta= 0.70
     Davidson diagonalization with overlap
     ethr =  1.85E-07,  avg # of iterations =  2.0

     Magnetic moment per site:
     atom:    1    charge:    6.4791    magn:    1.9901    constr:    0.0000
     atom:    2    charge:    6.4797    magn:   -1.9820    constr:    0.0000

     total cpu time spent up to now is       15.8 secs

     End of self-consistent calculation

 ------ SPIN UP ------------


          k = 0.0625 0.0625 0.0625 (   341 PWs)   bands (ev):

     5.0110   8.9823   8.9823  11.2123  11.2123  11.3538  13.3700  13.3700
    14.0147  14.2685  14.2685  22.7533

          k = 0.0625 0.0625 0.1875 (   336 PWs)   bands (ev):

     5.6246   9.2041   9.2071  11.1186  11.1494  11.4821  13.1482  13.4533
    13.5631  13.8164  14.2383  19.7817

          k = 0.0625 0.0625 0.3125 (   339 PWs)   bands (ev):

     6.7528   9.4403   9.5890  11.0594  11.0702  11.5760  12.7810  13.1363
    13.2624  13.5393  14.0447  17.0697

          k = 0.0625 0.0625 0.4375 (   336 PWs)   bands (ev):

     8.0948   9.2581   9.9450  10.9803  11.1259  11.5808  12.4588  12.9036
    12.9085  13.4281  13.8404  15.4914

          k = 0.0625 0.1875 0.1875 (   330 PWs)   bands (ev):

     6.2027   9.3457   9.4797  10.9300  11.0189  11.5040  13.1836  13.2725
    13.4203  13.5550  14.2978  19.9677

          k = 0.0625 0.1875 0.3125 (   335 PWs)   bands (ev):

     7.2345   9.4860   9.8664  10.7903  10.9215  11.3131  12.9679  13.0962
    13.3664  13.5648  14.2420  17.5627

          k = 0.0625 0.1875 0.4375 (   334 PWs)   bands (ev):

     8.3889   9.2656  10.1129  10.7286  11.0665  11.2056  12.6651  12.9379
    13.3052  13.8598  14.1223  15.6491

          k = 0.0625 0.3125 0.3125 (   335 PWs)   bands (ev):

     7.9816   9.3400  10.4422  10.5557  10.9086  10.9948  12.8320  13.4189
    13.4738  13.7692  14.3696  17.3636

          k = 0.0625 0.3125 0.4375 (   339 PWs)   bands (ev):

     8.6208   9.0444  10.4558  10.6101  10.8198  11.7124  12.6550  13.4208
    13.5519  14.2571  14.4090  15.7686

          k = 0.0625 0.4375 0.4375 (   338 PWs)   bands (ev):

     8.6865   8.8254  10.2898  10.3377  11.6879  12.3352  13.0090  13.3441
    13.7553  14.5273  14.6695  15.3467

          k = 0.1875 0.1875 0.1875 (   335 PWs)   bands (ev):

     6.7607   9.6175   9.6175  10.8039  10.8039  11.2040  13.3270  13.3270
    13.3288  13.8820  13.8820  20.9336

          k = 0.1875 0.1875 0.3125 (   336 PWs)   bands (ev):

     7.7316   9.8435   9.8460  10.6125  10.6977  10.9082  13.1242  13.2680
    13.4728  13.7961  14.1075  18.2703

          k = 0.1875 0.1875 0.4375 (   343 PWs)   bands (ev):

     8.7603   9.4957  10.0616  10.4330  10.7589  11.2345  12.8097  12.9163
    13.2894  14.1892  14.6122  16.1196

          k = 0.1875 0.3125 0.3125 (   332 PWs)   bands (ev):

     8.4875   9.7012  10.3417  10.5004  10.5064  10.6789  12.9360  13.2201
    13.6951  14.1780  14.3872  18.4497

          k = 0.1875 0.3125 0.4375 (   337 PWs)   bands (ev):

     9.0419   9.4358  10.2554  10.3831  10.6580  11.4303  12.6504  12.9517
    13.7263  14.3791  15.2674  16.7330

          k = 0.1875 0.4375 0.4375 (   334 PWs)   bands (ev):

     9.0300   9.2963  10.1689  10.1927  11.5513  11.8531  12.6263  12.6471
    13.9594  14.5918  16.0011  16.7704

          k = 0.3125 0.3125 0.3125 (   329 PWs)   bands (ev):

     9.2105  10.1601  10.1601  10.2062  10.4709  10.4709  12.8897  12.8897
    14.1144  14.1144  15.2468  20.0816

          k = 0.3125 0.3125 0.4375 (   332 PWs)   bands (ev):

     9.4468  10.0304  10.0539  10.2776  10.4421  11.2524  12.5130  12.7034
    14.1070  14.4545  16.3473  17.9829

          k = 0.3125 0.4375 0.4375 (   330 PWs)   bands (ev):

     9.4804   9.9814   9.9971  10.1556  11.2447  11.2861  12.2846  12.4941
    14.3192  14.6214  17.5464  18.6351

          k = 0.4375 0.4375 0.4375 (   326 PWs)   bands (ev):

     9.7507   9.8745   9.8745  11.0036  11.0036  11.0249  12.1978  12.1978
    14.6388  14.6388  19.1610  20.7615

 ------ SPIN DOWN ----------


          k = 0.0625 0.0625 0.0625 (   341 PWs)   bands (ev):

     5.0105   8.9847   8.9847  11.2195  11.2195  11.3613  13.3712  13.3712
    14.0189  14.2731  14.2731  22.7538

          k = 0.0625 0.0625 0.1875 (   336 PWs)   bands (ev):

     5.6241   9.2065   9.2097  11.1257  11.1566  11.4900  13.1492  13.4549
    13.5665  13.8205  14.2429  19.7819

          k = 0.0625 0.0625 0.3125 (   339 PWs)   bands (ev):

     6.7523   9.4423   9.5921  11.0666  11.0773  11.5841  12.7816  13.1395
    13.2659  13.5413  14.0488  17.0700

          k = 0.0625 0.0625 0.4375 (   336 PWs)   bands (ev):

     8.0950   9.2589   9.9488  10.9873  11.1329  11.5885  12.4591  12.9076
    12.9116  13.4313  13.8440  15.4911

          k = 0.0625 0.1875 0.1875 (   330 PWs)   bands (ev):

     6.2022   9.3484   9.4822  10.9368  11.0258  11.5121  13.1856  13.2749
    13.4216  13.5586  14.3026  19.9680

          k = 0.0625 0.1875 0.3125 (   335 PWs)   bands (ev):

     7.2343   9.4887   9.8692  10.7970  10.9277  11.3205  12.9712  13.0975
    13.3700  13.5666  14.2465  17.5633

          k = 0.0625 0.1875 0.4375 (   334 PWs)   bands (ev):

     8.3896   9.2677  10.1164  10.7352  11.0729  11.2104  12.6689  12.9392
    13.3089  13.8634  14.1262  15.6492

          k = 0.0625 0.3125 0.3125 (   335 PWs)   bands (ev):

     7.9822   9.3431  10.4454  10.5618  10.9154  10.9995  12.8354  13.4202
    13.4752  13.7736  14.3742  17.3639

          k = 0.0625 0.3125 0.4375 (   339 PWs)   bands (ev):

     8.6228   9.0474  10.4622  10.6163  10.8233  11.7147  12.6585  13.4226
    13.5542  14.2616  14.4126  15.7691

          k = 0.0625 0.4375 0.4375 (   338 PWs)   bands (ev):

     8.6898   8.8281  10.2959  10.3439  11.6922  12.3384  13.0110  13.3455
    13.7569  14.5299  14.6739  15.3478

          k = 0.1875 0.1875 0.1875 (   335 PWs)   bands (ev):

     6.7603   9.6203   9.6203  10.8105  10.8105  11.2111  13.3285  13.3285
    13.3325  13.8859  13.8859  20.9342

          k = 0.1875 0.1875 0.3125 (   336 PWs)   bands (ev):

     7.7316   9.8466   9.8489  10.6187  10.7039  10.9142  13.1269  13.2710
    13.4750  13.8000  14.1105  18.2713

          k = 0.1875 0.1875 0.4375 (   343 PWs)   bands (ev):

     8.7615   9.4984  10.0651  10.4388  10.7654  11.2382  12.8139  12.9197
    13.2906  14.1928  14.6152  16.1209

          k = 0.1875 0.3125 0.3125 (   332 PWs)   bands (ev):

     8.4884   9.7046  10.3468  10.5066  10.5105  10.6831  12.9396  13.2230
    13.6964  14.1802  14.3917  18.4508

          k = 0.1875 0.3125 0.4375 (   337 PWs)   bands (ev):

     9.0448   9.4386  10.2615  10.3889  10.6615  11.4326  12.6544  12.9553
    13.7274  14.3809  15.2710  16.7349

          k = 0.1875 0.4375 0.4375 (   334 PWs)   bands (ev):

     9.0343   9.2986  10.1750  10.1988  11.5548  11.8551  12.6296  12.6511
    13.9605  14.5919  16.0045  16.7726

          k = 0.3125 0.3125 0.3125 (   329 PWs)   bands (ev):

     9.2128  10.1659  10.1659  10.2097  10.4742  10.4742  12.8935  12.8935
    14.1153  14.1153  15.2512  20.0830

          k = 0.3125 0.3125 0.4375 (   332 PWs)   bands (ev):

     9.4516  10.0363  10.0579  10.2817  10.4452  11.2545  12.5173  12.7074
    14.1075  14.4551  16.3508  17.9851

          k = 0.3125 0.4375 0.4375 (   330 PWs)   bands (ev):

     9.4857   9.9872  10.0032  10.1582  11.2473  11.2879  12.2891  12.4984
    14.3196  14.6212  17.5494  18.6372

          k = 0.4375 0.4375 0.4375 (   326 PWs)   bands (ev):

     9.7566   9.8806   9.8806  11.0059  11.0059  11.0265  12.2027  12.2027
    14.6385  14.6385  19.1634  20.7634

     the Fermi energy is    13.3477 ev

!    total energy              =    -111.52525824 Ry
     estimated scf accuracy    <       0.00000080 Ry
     smearing contrib. (-TS)   =      -0.00088744 Ry
     internal energy E=F+TS    =    -111.52437079 Ry

     The total energy is F=E-TS. E is the sum of the following terms:
     one-electron contribution =      13.82795636 Ry
     hartree contribution      =      13.32879214 Ry
     xc contribution           =     -52.73612268 Ry
     ewald contribution        =     -85.94499662 Ry

     total magnetization       =     0.01 Bohr mag/cell
     absolute magnetization    =     4.12 Bohr mag/cell

     convergence has been achieved in  19 iterations

     Writing output data file /tmp/QE/fe.save/

     init_run     :      1.13s CPU      0.64s WALL (       1 calls)
     electrons    :     36.11s CPU     14.99s WALL (       1 calls)

     Called by init_run:
     wfcinit      :      0.54s CPU      0.20s WALL (       1 calls)
     potinit      :      0.02s CPU      0.02s WALL (       1 calls)
     hinit0       :      0.51s CPU      0.39s WALL (       1 calls)

     Called by electrons:
     c_bands      :     24.22s CPU     10.09s WALL (      19 calls)
     sum_band     :      9.30s CPU      3.83s WALL (      19 calls)
     v_of_rho     :      1.06s CPU      0.45s WALL (      20 calls)
     newd         :      1.36s CPU      0.56s WALL (      20 calls)
     mix_rho      :      0.16s CPU      0.07s WALL (      19 calls)

     Called by c_bands:
     init_us_2    :      0.87s CPU      0.33s WALL (    1560 calls)
     cegterg      :     21.51s CPU      9.01s WALL (     760 calls)

     Called by *egterg:
     cdiaghg      :      1.52s CPU      0.64s WALL (    2366 calls)
     h_psi        :     19.05s CPU      7.96s WALL (    2406 calls)
     s_psi        :      0.26s CPU      0.11s WALL (    2406 calls)
     g_psi        :      0.13s CPU      0.05s WALL (    1606 calls)

     Called by h_psi:
     h_psi:calbec :      1.85s CPU      1.13s WALL (    2406 calls)
     vloc_psi     :     16.76s CPU      6.62s WALL (    2406 calls)
     add_vuspsi   :      0.34s CPU      0.17s WALL (    2406 calls)

     General routines
     calbec       :      2.62s CPU      1.62s WALL (    3166 calls)
     fft          :      0.18s CPU      0.08s WALL (     494 calls)
     ffts         :      0.04s CPU      0.02s WALL (      78 calls)
     fftw         :     18.51s CPU      7.28s WALL (   53004 calls)
     interpolate  :      0.04s CPU      0.02s WALL (      40 calls)

     Parallel routines

     PWSCF        :     37.45s CPU     15.84s WALL


   This run was terminated on:  21: 2:43  17Apr2021            

=------------------------------------------------------------------------------=
   JOB DONE.
=------------------------------------------------------------------------------=
