
     Program PWSCF v.6.7MaX starts on 16Apr2021 at 16:20: 0 

     This program is part of the open-source Quantum ESPRESSO suite
     for quantum simulation of materials; please cite
         "P. Giannozzi et al., J. Phys.:Condens. Matter 21 395502 (2009);
         "P. Giannozzi et al., J. Phys.:Condens. Matter 29 465901 (2017);
          URL http://www.quantum-espresso.org", 
     in publications or presentations arising from this work. More details at
     http://www.quantum-espresso.org/quote

     Parallel version (MPI), running on     8 processors

     MPI processes distributed on     1 nodes
     R & G space division:  proc/nbgrp/npool/nimage =       8
     Waiting for input...
     Reading input from standard input

     Current dimensions of program PWSCF are:
     Max number of different atomic species (ntypx) = 10
     Max number of k-points (npk) =  40000
     Max angular momentum in pseudopotentials (lmaxx) =  3

     IMPORTANT: XC functional enforced from input :
     Exchange-correlation= PBE0
                           (   6   4   8   4   0   0   0)
     EXX-fraction              =        0.25
     Any further DFT definition will be discarded
     Please, verify this is what you really want


     Subspace diagonalization in iterative solution of the eigenvalue problem:
     a serial algorithm will be used

     EXX: q-point mesh:     8    8    8
     EXX: setup a grid of 512 q-points centered on each k-point
     (k+q)-points:
  -0.0625000   0.0625000   0.0625000         1    1
  -0.1875000   0.1875000  -0.0625000         2    1
  -0.3125000   0.3125000  -0.1875000         3    1
  -0.4375000   0.4375000  -0.3125000         4    1
   0.4375000  -0.4375000   0.5625000         5    1
   0.3125000  -0.3125000   0.4375000         6    1
   0.1875000  -0.1875000   0.3125000         7    1
   0.0625000  -0.0625000   0.1875000         8    1
   0.0625000   0.1875000   0.1875000         2   -9
  -0.0625000   0.3125000   0.0625000         9    1
  -0.1875000   0.4375000  -0.0625000        10    1
  -0.3125000   0.5625000  -0.1875000        11    1
   0.5625000  -0.3125000   0.6875000        12    1
   0.4375000  -0.1875000   0.5625000        13    1
   0.3125000  -0.0625000   0.4375000        14    1
   0.1875000   0.0625000   0.3125000        15    1
   0.1875000   0.3125000   0.3125000         3   -9
   0.0625000   0.4375000   0.1875000        10   -9
  -0.0625000   0.5625000   0.0625000        16    1
  -0.1875000   0.6875000  -0.0625000        17    1
   0.6875000  -0.1875000   0.8125000        18    1
   0.5625000  -0.0625000   0.6875000        19    1
   0.4375000   0.0625000   0.5625000        20    1
   0.3125000   0.1875000   0.4375000        21    1
   0.3125000   0.4375000   0.4375000         4   -9
   0.1875000   0.5625000   0.3125000        11   -9
   0.0625000   0.6875000   0.1875000        17   -9
  -0.0625000   0.8125000   0.0625000        22    1
   0.8125000  -0.0625000   0.9375000        23    1
   0.6875000   0.0625000   0.8125000        24    1
   0.5625000   0.1875000   0.6875000        25    1
   0.4375000   0.3125000   0.5625000        26    1
  -0.5625000  -0.4375000  -0.4375000         5   -9
  -0.6875000  -0.3125000  -0.5625000        12   -9
  -0.8125000  -0.1875000  -0.6875000        18   -9
  -0.9375000  -0.0625000  -0.8125000        23   -9
  -0.0625000  -0.9375000   0.0625000        27    1
  -0.1875000  -0.8125000  -0.0625000        28    1
  -0.3125000  -0.6875000  -0.1875000        29    1
  -0.4375000  -0.5625000  -0.3125000        26   14
  -0.4375000  -0.3125000  -0.3125000         6   -9
  -0.5625000  -0.1875000  -0.4375000        13   -9
  -0.6875000  -0.0625000  -0.5625000        19   -9
  -0.8125000   0.0625000  -0.6875000        24   -9
   0.0625000  -0.8125000   0.1875000        28   -9
  -0.0625000  -0.6875000   0.0625000        30    1
  -0.1875000  -0.5625000  -0.0625000        31    1
  -0.3125000  -0.4375000  -0.1875000        21   14
  -0.3125000  -0.1875000  -0.1875000         7   -9
  -0.4375000  -0.0625000  -0.3125000        14   -9
  -0.5625000   0.0625000  -0.4375000        20   -9
  -0.6875000   0.1875000  -0.5625000        25   -9
   0.1875000  -0.6875000   0.3125000        29   -9
   0.0625000  -0.5625000   0.1875000        31   -9
  -0.0625000  -0.4375000   0.0625000        32    1
  -0.1875000  -0.3125000  -0.0625000        15   14
  -0.1875000  -0.0625000  -0.0625000         8   -9
  -0.3125000   0.0625000  -0.1875000        15   -9
  -0.4375000   0.1875000  -0.3125000        21   -9
  -0.5625000   0.3125000  -0.4375000        26   -9
   0.3125000  -0.5625000   0.4375000        26  -23
   0.1875000  -0.4375000   0.3125000        21  -23
   0.0625000  -0.3125000   0.1875000        15  -23
  -0.0625000  -0.1875000   0.0625000         8   14
  -0.1875000  -0.0625000   0.1875000         2  -14
  -0.3125000   0.0625000   0.0625000         9   -5
  -0.4375000   0.1875000  -0.0625000        10   -5
  -0.5625000   0.3125000  -0.1875000        11   -5
   0.3125000  -0.5625000   0.6875000        12   -5
   0.1875000  -0.4375000   0.5625000        13   -5
   0.0625000  -0.3125000   0.4375000        14   -5
  -0.0625000  -0.1875000   0.3125000        15   -5
  -0.0625000   0.0625000   0.3125000         9  -14
  -0.1875000   0.1875000   0.1875000        33    1
  -0.3125000   0.3125000   0.0625000        34    1
  -0.4375000   0.4375000  -0.0625000        35    1
   0.4375000  -0.4375000   0.8125000        36    1
   0.3125000  -0.3125000   0.6875000        37    1
   0.1875000  -0.1875000   0.5625000        38    1
   0.0625000  -0.0625000   0.4375000        32   14
   0.0625000   0.1875000   0.4375000        10   18
  -0.0625000   0.3125000   0.3125000        34   -9
  -0.1875000   0.4375000   0.1875000        39    1
  -0.3125000   0.5625000   0.0625000        40    1
   0.5625000  -0.3125000   0.9375000        41    1
   0.4375000  -0.1875000   0.8125000        42    1
   0.3125000  -0.0625000   0.6875000        43    1
   0.1875000   0.0625000   0.5625000        31   14
   0.1875000   0.3125000   0.5625000        11   18
   0.0625000   0.4375000   0.4375000        35   -9
  -0.0625000   0.5625000   0.3125000        40   -9
  -0.1875000   0.6875000   0.1875000        44    1
   0.6875000  -0.1875000   1.0625000        45    1
   0.5625000  -0.0625000   0.9375000        46    1
   0.4375000   0.0625000   0.8125000        47    1
   0.3125000   0.1875000   0.6875000        29   14
  -0.6875000  -0.5625000  -0.3125000        12   18
  -0.8125000  -0.4375000  -0.4375000        36   -9
  -0.9375000  -0.3125000  -0.5625000        41   -9
  -1.0625000  -0.1875000  -0.6875000        45   -9
  -0.1875000  -1.0625000   0.1875000        48    1
  -0.3125000  -0.9375000   0.0625000        49    1
  -0.4375000  -0.8125000  -0.0625000        47   14
  -0.5625000  -0.6875000  -0.1875000        25   14
  -0.5625000  -0.4375000  -0.1875000        13   18
  -0.6875000  -0.3125000  -0.3125000        37   -9
  -0.8125000  -0.1875000  -0.4375000        42   -9
  -0.9375000  -0.0625000  -0.5625000        46   -9
  -0.0625000  -0.9375000   0.3125000        49   -9
  -0.1875000  -0.8125000   0.1875000        50    1
  -0.3125000  -0.6875000   0.0625000        43   14
  -0.4375000  -0.5625000  -0.0625000        20   14
  -0.4375000  -0.3125000  -0.0625000        14   18
  -0.5625000  -0.1875000  -0.1875000        38   -9
  -0.6875000  -0.0625000  -0.3125000        43   -9
  -0.8125000   0.0625000  -0.4375000        47   -9
   0.0625000  -0.8125000   0.4375000        47  -23
  -0.0625000  -0.6875000   0.3125000        43  -23
  -0.1875000  -0.5625000   0.1875000        38   14
  -0.3125000  -0.4375000   0.0625000        14   14
  -0.3125000  -0.1875000   0.0625000        15   18
  -0.4375000  -0.0625000  -0.0625000        32    5
  -0.5625000   0.0625000  -0.1875000        31  -23
  -0.6875000   0.1875000  -0.3125000        29  -23
   0.1875000  -0.6875000   0.5625000        25  -23
   0.0625000  -0.5625000   0.4375000        20  -23
  -0.0625000  -0.4375000   0.3125000        14  -23
  -0.1875000  -0.3125000   0.1875000         7   14
  -0.3125000  -0.1875000   0.3125000         3  -14
  -0.4375000  -0.0625000   0.1875000        10   23
  -0.5625000   0.0625000   0.0625000        16   -5
  -0.6875000   0.1875000  -0.0625000        17   -5
   0.1875000  -0.6875000   0.8125000        18   -5
   0.0625000  -0.5625000   0.6875000        19   -5
  -0.0625000  -0.4375000   0.5625000        20   -5
  -0.1875000  -0.3125000   0.4375000        21   -5
  -0.1875000  -0.0625000   0.4375000        10  -14
  -0.3125000   0.0625000   0.3125000        34  -14
  -0.4375000   0.1875000   0.1875000        39   -5
  -0.5625000   0.3125000   0.0625000        40   -5
   0.3125000  -0.5625000   0.9375000        41   -5
   0.1875000  -0.4375000   0.8125000        42   -5
   0.0625000  -0.3125000   0.6875000        43   -5
  -0.0625000  -0.1875000   0.5625000        31  -18
  -0.0625000   0.0625000   0.5625000        16  -14
  -0.1875000   0.1875000   0.4375000        39  -14
  -0.3125000   0.3125000   0.3125000        51    1
  -0.4375000   0.4375000   0.1875000        52    1
   0.4375000  -0.4375000   1.0625000        53    1
   0.3125000  -0.3125000   0.9375000        54    1
   0.1875000  -0.1875000   0.8125000        50   14
   0.0625000  -0.0625000   0.6875000        30   14
   0.0625000   0.1875000   0.6875000        17   18
  -0.0625000   0.3125000   0.5625000        40   18
  -0.1875000   0.4375000   0.4375000        52   -9
  -0.3125000   0.5625000   0.3125000        55    1
   0.5625000  -0.3125000   1.1875000        56    1
   0.4375000  -0.1875000   1.0625000        57    1
   0.3125000  -0.0625000   0.9375000        49   14
   0.1875000   0.0625000   0.8125000        28   14
  -0.8125000  -0.6875000  -0.1875000        18   18
  -0.9375000  -0.5625000  -0.3125000        41   18
  -1.0625000  -0.4375000  -0.4375000        53   -9
  -1.1875000  -0.3125000  -0.5625000        56   -9
  -0.3125000  -1.1875000   0.3125000        58    1
  -0.4375000  -1.0625000   0.1875000        57   14
  -0.5625000  -0.9375000   0.0625000        46   14
  -0.6875000  -0.8125000  -0.0625000        24   14
  -0.6875000  -0.5625000  -0.0625000        19   18
  -0.8125000  -0.4375000  -0.1875000        42   18
  -0.9375000  -0.3125000  -0.3125000        54   -9
  -1.0625000  -0.1875000  -0.4375000        57   -9
  -0.1875000  -1.0625000   0.4375000        57  -23
  -0.3125000  -0.9375000   0.3125000        54   14
  -0.4375000  -0.8125000   0.1875000        42   14
  -0.5625000  -0.6875000   0.0625000        19   14
  -0.5625000  -0.4375000   0.0625000        20   18
  -0.6875000  -0.3125000  -0.0625000        43   18
  -0.8125000  -0.1875000  -0.1875000        50    5
  -0.9375000  -0.0625000  -0.3125000        49  -23
  -0.0625000  -0.9375000   0.5625000        46  -23
  -0.1875000  -0.8125000   0.4375000        42  -23
  -0.3125000  -0.6875000   0.3125000        37   14
  -0.4375000  -0.5625000   0.1875000        13   14
  -0.4375000  -0.3125000   0.1875000        21   18
  -0.5625000  -0.1875000   0.0625000        31    5
  -0.6875000  -0.0625000  -0.0625000        30    5
  -0.8125000   0.0625000  -0.1875000        28  -23
   0.0625000  -0.8125000   0.6875000        24  -23
  -0.0625000  -0.6875000   0.5625000        19  -23
  -0.1875000  -0.5625000   0.4375000        13  -23
  -0.3125000  -0.4375000   0.3125000         6   14
  -0.4375000  -0.3125000   0.4375000         4  -14
  -0.5625000  -0.1875000   0.3125000        11   23
  -0.6875000  -0.0625000   0.1875000        17   23
  -0.8125000   0.0625000   0.0625000        22   -5
   0.0625000  -0.8125000   0.9375000        23   -5
  -0.0625000  -0.6875000   0.8125000        24   -5
  -0.1875000  -0.5625000   0.6875000        25   -5
  -0.3125000  -0.4375000   0.5625000        26   -5
  -0.3125000  -0.1875000   0.5625000        11  -14
  -0.4375000  -0.0625000   0.4375000        35  -14
  -0.5625000   0.0625000   0.3125000        40   23
  -0.6875000   0.1875000   0.1875000        44   -5
   0.1875000  -0.6875000   1.0625000        45   -5
   0.0625000  -0.5625000   0.9375000        46   -5
  -0.0625000  -0.4375000   0.8125000        47   -5
  -0.1875000  -0.3125000   0.6875000        29  -18
  -0.1875000  -0.0625000   0.6875000        17  -14
  -0.3125000   0.0625000   0.5625000        40  -14
  -0.4375000   0.1875000   0.4375000        52  -14
  -0.5625000   0.3125000   0.3125000        55   -5
   0.3125000  -0.5625000   1.1875000        56   -5
   0.1875000  -0.4375000   1.0625000        57   -5
   0.0625000  -0.3125000   0.9375000        49  -18
  -0.0625000  -0.1875000   0.8125000        28  -18
  -0.0625000   0.0625000   0.8125000        22  -14
  -0.1875000   0.1875000   0.6875000        44  -14
  -0.3125000   0.3125000   0.5625000        55  -14
  -0.4375000   0.4375000   0.4375000        59    1
   0.4375000  -0.4375000   1.3125000        60    1
   0.3125000  -0.3125000   1.1875000        58   14
   0.1875000  -0.1875000   1.0625000        48   14
   0.0625000  -0.0625000   0.9375000        27   14
  -0.9375000  -0.8125000  -0.0625000        23   18
  -1.0625000  -0.6875000  -0.1875000        45   18
  -1.1875000  -0.5625000  -0.3125000        56   18
  -1.3125000  -0.4375000  -0.4375000        60   -9
  -0.4375000  -1.3125000   0.4375000        60   14
  -0.5625000  -1.1875000   0.3125000        56   14
  -0.6875000  -1.0625000   0.1875000        45   14
  -0.8125000  -0.9375000   0.0625000        23   14
  -0.8125000  -0.6875000   0.0625000        24   18
  -0.9375000  -0.5625000  -0.0625000        46   18
  -1.0625000  -0.4375000  -0.1875000        57   18
  -1.1875000  -0.3125000  -0.3125000        58    5
  -0.3125000  -1.1875000   0.5625000        56  -23
  -0.4375000  -1.0625000   0.4375000        53   14
  -0.5625000  -0.9375000   0.3125000        41   14
  -0.6875000  -0.8125000   0.1875000        18   14
  -0.6875000  -0.5625000   0.1875000        25   18
  -0.8125000  -0.4375000   0.0625000        47   18
  -0.9375000  -0.3125000  -0.0625000        49    5
  -1.0625000  -0.1875000  -0.1875000        48    5
  -0.1875000  -1.0625000   0.6875000        45  -23
  -0.3125000  -0.9375000   0.5625000        41  -23
  -0.4375000  -0.8125000   0.4375000        36   14
  -0.5625000  -0.6875000   0.3125000        12   14
  -0.5625000  -0.4375000   0.3125000        26   18
  -0.6875000  -0.3125000   0.1875000        29    5
  -0.8125000  -0.1875000   0.0625000        28    5
  -0.9375000  -0.0625000  -0.0625000        27    5
  -0.0625000  -0.9375000   0.8125000        23  -23
  -0.1875000  -0.8125000   0.6875000        18  -23
  -0.3125000  -0.6875000   0.5625000        12  -23
  -0.4375000  -0.5625000   0.4375000         5   14
   0.4375000   0.5625000  -0.4375000         5  -14
   0.3125000   0.6875000  -0.5625000        12   23
   0.1875000   0.8125000  -0.6875000        18   23
   0.0625000   0.9375000  -0.8125000        23   23
   0.9375000   0.0625000   0.0625000        27   -5
   0.8125000   0.1875000  -0.0625000        28   -5
   0.6875000   0.3125000  -0.1875000        29   -5
   0.5625000   0.4375000  -0.3125000        26  -18
   0.5625000   0.6875000  -0.3125000        12  -14
   0.4375000   0.8125000  -0.4375000        36  -14
   0.3125000   0.9375000  -0.5625000        41   23
   0.1875000   1.0625000  -0.6875000        45   23
   1.0625000   0.1875000   0.1875000        48   -5
   0.9375000   0.3125000   0.0625000        49   -5
   0.8125000   0.4375000  -0.0625000        47  -18
   0.6875000   0.5625000  -0.1875000        25  -18
   0.6875000   0.8125000  -0.1875000        18  -14
   0.5625000   0.9375000  -0.3125000        41  -14
   0.4375000   1.0625000  -0.4375000        53  -14
   0.3125000   1.1875000  -0.5625000        56   23
   1.1875000   0.3125000   0.3125000        58   -5
   1.0625000   0.4375000   0.1875000        57  -18
   0.9375000   0.5625000   0.0625000        46  -18
   0.8125000   0.6875000  -0.0625000        24  -18
   0.8125000   0.9375000  -0.0625000        23  -14
   0.6875000   1.0625000  -0.1875000        45  -14
   0.5625000   1.1875000  -0.3125000        56  -14
   0.4375000   1.3125000  -0.4375000        60  -14
   1.3125000   0.4375000   0.4375000        60    9
   1.1875000   0.5625000   0.3125000        56  -18
   1.0625000   0.6875000   0.1875000        45  -18
   0.9375000   0.8125000   0.0625000        23  -18
  -0.0625000   0.0625000  -0.9375000        27  -14
  -0.1875000   0.1875000  -1.0625000        48  -14
  -0.3125000   0.3125000  -1.1875000        58  -14
  -0.4375000   0.4375000  -1.3125000        60   -1
   0.4375000  -0.4375000  -0.4375000        59   -1
   0.3125000  -0.3125000  -0.5625000        55   14
   0.1875000  -0.1875000  -0.6875000        44   14
   0.0625000  -0.0625000  -0.8125000        22   14
   0.0625000   0.1875000  -0.8125000        28   18
  -0.0625000   0.3125000  -0.9375000        49   18
  -0.1875000   0.4375000  -1.0625000        57    5
  -0.3125000   0.5625000  -1.1875000        56    5
   0.5625000  -0.3125000  -0.3125000        55    5
   0.4375000  -0.1875000  -0.4375000        52   14
   0.3125000  -0.0625000  -0.5625000        40   14
   0.1875000   0.0625000  -0.6875000        17   14
   0.1875000   0.3125000  -0.6875000        29   18
   0.0625000   0.4375000  -0.8125000        47    5
  -0.0625000   0.5625000  -0.9375000        46    5
  -0.1875000   0.6875000  -1.0625000        45    5
   0.6875000  -0.1875000  -0.1875000        44    5
   0.5625000  -0.0625000  -0.3125000        40  -23
   0.4375000   0.0625000  -0.4375000        35   14
   0.3125000   0.1875000  -0.5625000        11   14
   0.3125000   0.4375000  -0.5625000        26    5
   0.1875000   0.5625000  -0.6875000        25    5
   0.0625000   0.6875000  -0.8125000        24    5
  -0.0625000   0.8125000  -0.9375000        23    5
   0.8125000  -0.0625000  -0.0625000        22    5
   0.6875000   0.0625000  -0.1875000        17  -23
   0.5625000   0.1875000  -0.3125000        11  -23
   0.4375000   0.3125000  -0.4375000         4   14
   0.3125000   0.4375000  -0.3125000         6  -14
   0.1875000   0.5625000  -0.4375000        13   23
   0.0625000   0.6875000  -0.5625000        19   23
  -0.0625000   0.8125000  -0.6875000        24   23
   0.8125000  -0.0625000   0.1875000        28   23
   0.6875000   0.0625000   0.0625000        30   -5
   0.5625000   0.1875000  -0.0625000        31   -5
   0.4375000   0.3125000  -0.1875000        21  -18
   0.4375000   0.5625000  -0.1875000        13  -14
   0.3125000   0.6875000  -0.3125000        37  -14
   0.1875000   0.8125000  -0.4375000        42   23
   0.0625000   0.9375000  -0.5625000        46   23
   0.9375000   0.0625000   0.3125000        49   23
   0.8125000   0.1875000   0.1875000        50   -5
   0.6875000   0.3125000   0.0625000        43  -18
   0.5625000   0.4375000  -0.0625000        20  -18
   0.5625000   0.6875000  -0.0625000        19  -14
   0.4375000   0.8125000  -0.1875000        42  -14
   0.3125000   0.9375000  -0.3125000        54  -14
   0.1875000   1.0625000  -0.4375000        57   23
   1.0625000   0.1875000   0.4375000        57    9
   0.9375000   0.3125000   0.3125000        54    9
   0.8125000   0.4375000   0.1875000        42  -18
   0.6875000   0.5625000   0.0625000        19  -18
   0.6875000   0.8125000   0.0625000        24  -14
   0.5625000   0.9375000  -0.0625000        46  -14
   0.4375000   1.0625000  -0.1875000        57  -14
   0.3125000   1.1875000  -0.3125000        58   -1
   1.1875000   0.3125000   0.5625000        56    9
   1.0625000   0.4375000   0.4375000        53    9
   0.9375000   0.5625000   0.3125000        41  -18
   0.8125000   0.6875000   0.1875000        18  -18
  -0.1875000  -0.0625000  -0.8125000        28  -14
  -0.3125000   0.0625000  -0.9375000        49  -14
  -0.4375000   0.1875000  -1.0625000        57   -1
  -0.5625000   0.3125000  -1.1875000        56   -1
   0.3125000  -0.5625000  -0.3125000        55   -1
   0.1875000  -0.4375000  -0.4375000        52    9
   0.0625000  -0.3125000  -0.5625000        40  -18
  -0.0625000  -0.1875000  -0.6875000        17  -18
  -0.0625000   0.0625000  -0.6875000        30  -14
  -0.1875000   0.1875000  -0.8125000        50  -14
  -0.3125000   0.3125000  -0.9375000        54   -1
  -0.4375000   0.4375000  -1.0625000        53   -1
   0.4375000  -0.4375000  -0.1875000        52   -1
   0.3125000  -0.3125000  -0.3125000        51   -1
   0.1875000  -0.1875000  -0.4375000        39   14
   0.0625000  -0.0625000  -0.5625000        16   14
   0.0625000   0.1875000  -0.5625000        31   18
  -0.0625000   0.3125000  -0.6875000        43    5
  -0.1875000   0.4375000  -0.8125000        42    5
  -0.3125000   0.5625000  -0.9375000        41    5
   0.5625000  -0.3125000  -0.0625000        40    5
   0.4375000  -0.1875000  -0.1875000        39    5
   0.3125000  -0.0625000  -0.3125000        34   14
   0.1875000   0.0625000  -0.4375000        10   14
   0.1875000   0.3125000  -0.4375000        21    5
   0.0625000   0.4375000  -0.5625000        20    5
  -0.0625000   0.5625000  -0.6875000        19    5
  -0.1875000   0.6875000  -0.8125000        18    5
   0.6875000  -0.1875000   0.0625000        17    5
   0.5625000  -0.0625000  -0.0625000        16    5
   0.4375000   0.0625000  -0.1875000        10  -23
   0.3125000   0.1875000  -0.3125000         3   14
   0.1875000   0.3125000  -0.1875000         7  -14
   0.0625000   0.4375000  -0.3125000        14   23
  -0.0625000   0.5625000  -0.4375000        20   23
  -0.1875000   0.6875000  -0.5625000        25   23
   0.6875000  -0.1875000   0.3125000        29   23
   0.5625000  -0.0625000   0.1875000        31   23
   0.4375000   0.0625000   0.0625000        32   -5
   0.3125000   0.1875000  -0.0625000        15  -18
   0.3125000   0.4375000  -0.0625000        14  -14
   0.1875000   0.5625000  -0.1875000        38  -14
   0.0625000   0.6875000  -0.3125000        43   23
  -0.0625000   0.8125000  -0.4375000        47   23
   0.8125000  -0.0625000   0.4375000        47    9
   0.6875000   0.0625000   0.3125000        43    9
   0.5625000   0.1875000   0.1875000        38    9
   0.4375000   0.3125000   0.0625000        14  -18
   0.4375000   0.5625000   0.0625000        20  -14
   0.3125000   0.6875000  -0.0625000        43  -14
   0.1875000   0.8125000  -0.1875000        50   -1
   0.0625000   0.9375000  -0.3125000        49    9
   0.9375000   0.0625000   0.5625000        46    9
   0.8125000   0.1875000   0.4375000        42    9
   0.6875000   0.3125000   0.3125000        37    9
   0.5625000   0.4375000   0.1875000        13  -18
   0.5625000   0.6875000   0.1875000        25  -14
   0.4375000   0.8125000   0.0625000        47  -14
   0.3125000   0.9375000  -0.0625000        49   -1
   0.1875000   1.0625000  -0.1875000        48   -1
   1.0625000   0.1875000   0.6875000        45    9
   0.9375000   0.3125000   0.5625000        41    9
   0.8125000   0.4375000   0.4375000        36    9
   0.6875000   0.5625000   0.3125000        12  -18
  -0.3125000  -0.1875000  -0.6875000        29  -14
  -0.4375000  -0.0625000  -0.8125000        47   -1
  -0.5625000   0.0625000  -0.9375000        46   -1
  -0.6875000   0.1875000  -1.0625000        45   -1
   0.1875000  -0.6875000  -0.1875000        44   -1
   0.0625000  -0.5625000  -0.3125000        40    9
  -0.0625000  -0.4375000  -0.4375000        35    9
  -0.1875000  -0.3125000  -0.5625000        11  -18
  -0.1875000  -0.0625000  -0.5625000        31  -14
  -0.3125000   0.0625000  -0.6875000        43   -1
  -0.4375000   0.1875000  -0.8125000        42   -1
  -0.5625000   0.3125000  -0.9375000        41   -1
   0.3125000  -0.5625000  -0.0625000        40   -1
   0.1875000  -0.4375000  -0.1875000        39   -1
   0.0625000  -0.3125000  -0.3125000        34    9
  -0.0625000  -0.1875000  -0.4375000        10  -18
  -0.0625000   0.0625000  -0.4375000        32  -14
  -0.1875000   0.1875000  -0.5625000        38   -1
  -0.3125000   0.3125000  -0.6875000        37   -1
  -0.4375000   0.4375000  -0.8125000        36   -1
   0.4375000  -0.4375000   0.0625000        35   -1
   0.3125000  -0.3125000  -0.0625000        34   -1
   0.1875000  -0.1875000  -0.1875000        33   -1
   0.0625000  -0.0625000  -0.3125000         9   14
   0.0625000   0.1875000  -0.3125000        15    5
  -0.0625000   0.3125000  -0.4375000        14    5
  -0.1875000   0.4375000  -0.5625000        13    5
  -0.3125000   0.5625000  -0.6875000        12    5
   0.5625000  -0.3125000   0.1875000        11    5
   0.4375000  -0.1875000   0.0625000        10    5
   0.3125000  -0.0625000  -0.0625000         9    5
   0.1875000   0.0625000  -0.1875000         2   14
   0.0625000   0.1875000  -0.0625000         8  -14
  -0.0625000   0.3125000  -0.1875000        15   23
  -0.1875000   0.4375000  -0.3125000        21   23
  -0.3125000   0.5625000  -0.4375000        26   23
   0.5625000  -0.3125000   0.4375000        26    9
   0.4375000  -0.1875000   0.3125000        21    9
   0.3125000  -0.0625000   0.1875000        15    9
   0.1875000   0.0625000   0.0625000         8    9
   0.1875000   0.3125000   0.0625000        15  -14
   0.0625000   0.4375000  -0.0625000        32   -1
  -0.0625000   0.5625000  -0.1875000        31    9
  -0.1875000   0.6875000  -0.3125000        29    9
   0.6875000  -0.1875000   0.5625000        25    9
   0.5625000  -0.0625000   0.4375000        20    9
   0.4375000   0.0625000   0.3125000        14    9
   0.3125000   0.1875000   0.1875000         7    9
   0.3125000   0.4375000   0.1875000        21  -14
   0.1875000   0.5625000   0.0625000        31   -1
   0.0625000   0.6875000  -0.0625000        30   -1
  -0.0625000   0.8125000  -0.1875000        28    9
   0.8125000  -0.0625000   0.6875000        24    9
   0.6875000   0.0625000   0.5625000        19    9
   0.5625000   0.1875000   0.4375000        13    9
   0.4375000   0.3125000   0.3125000         6    9
   0.4375000   0.5625000   0.3125000        26  -14
   0.3125000   0.6875000   0.1875000        29   -1
   0.1875000   0.8125000   0.0625000        28   -1
   0.0625000   0.9375000  -0.0625000        27   -1
   0.9375000   0.0625000   0.8125000        23    9
   0.8125000   0.1875000   0.6875000        18    9
   0.6875000   0.3125000   0.5625000        12    9
   0.5625000   0.4375000   0.4375000         5    9
  -0.4375000  -0.3125000  -0.5625000        26   -1
  -0.5625000  -0.1875000  -0.6875000        25   -1
  -0.6875000  -0.0625000  -0.8125000        24   -1
  -0.8125000   0.0625000  -0.9375000        23   -1
   0.0625000  -0.8125000  -0.0625000        22   -1
  -0.0625000  -0.6875000  -0.1875000        17    9
  -0.1875000  -0.5625000  -0.3125000        11    9
  -0.3125000  -0.4375000  -0.4375000         4    9
  -0.3125000  -0.1875000  -0.4375000        21   -1
  -0.4375000  -0.0625000  -0.5625000        20   -1
  -0.5625000   0.0625000  -0.6875000        19   -1
  -0.6875000   0.1875000  -0.8125000        18   -1
   0.1875000  -0.6875000   0.0625000        17   -1
   0.0625000  -0.5625000  -0.0625000        16   -1
  -0.0625000  -0.4375000  -0.1875000        10    9
  -0.1875000  -0.3125000  -0.3125000         3    9
  -0.1875000  -0.0625000  -0.3125000        15   -1
  -0.3125000   0.0625000  -0.4375000        14   -1
  -0.4375000   0.1875000  -0.5625000        13   -1
  -0.5625000   0.3125000  -0.6875000        12   -1
   0.3125000  -0.5625000   0.1875000        11   -1
   0.1875000  -0.4375000   0.0625000        10   -1
   0.0625000  -0.3125000  -0.0625000         9   -1
  -0.0625000  -0.1875000  -0.1875000         2    9
  -0.0625000   0.0625000  -0.1875000         8   -1
  -0.1875000   0.1875000  -0.3125000         7   -1
  -0.3125000   0.3125000  -0.4375000         6   -1
  -0.4375000   0.4375000  -0.5625000         5   -1
   0.4375000  -0.4375000   0.3125000         4   -1
   0.3125000  -0.3125000   0.1875000         3   -1
   0.1875000  -0.1875000   0.0625000         2   -1
   0.0625000  -0.0625000  -0.0625000         1   -1
 
     Parallelization info
     --------------------
     sticks:   dense  smooth     PW     G-vecs:    dense   smooth      PW
     Min          35      35     13                  392      392      87
     Max          36      36     14                  395      395      88
     Sum         283     283    109                 3143     3143     701
 


     bravais-lattice index     =            2
     lattice parameter (alat)  =      10.2000  a.u.
     unit-cell volume          =     265.3020 (a.u.)^3
     number of atoms/cell      =            2
     number of atomic types    =            1
     number of electrons       =         8.00
     number of Kohn-Sham states=            4
     kinetic-energy cutoff     =      20.0000  Ry
     charge density cutoff     =      80.0000  Ry
     cutoff for Fock operator  =      80.0000  Ry
     scf convergence threshold =      1.0E-09
     mixing beta               =       0.3000
     number of iterations used =            8  plain     mixing
     Exchange-correlation= PBE0
                           (   6   4   8   4   0   0   0)
     EXX-fraction              =        0.25

     celldm(1)=  10.200000  celldm(2)=   0.000000  celldm(3)=   0.000000
     celldm(4)=   0.000000  celldm(5)=   0.000000  celldm(6)=   0.000000

     crystal axes: (cart. coord. in units of alat)
               a(1) = (  -0.500000   0.000000   0.500000 )  
               a(2) = (   0.000000   0.500000   0.500000 )  
               a(3) = (  -0.500000   0.500000   0.000000 )  

     reciprocal axes: (cart. coord. in units 2 pi/alat)
               b(1) = ( -1.000000 -1.000000  1.000000 )  
               b(2) = (  1.000000  1.000000  1.000000 )  
               b(3) = ( -1.000000  1.000000 -1.000000 )  


     PseudoPot. # 1 for Si read from file:
     ../../pseudo/Si.pbe-rrkj.UPF
     MD5 check sum: d313e23c370db8ef523384de16bc752c
     Pseudo is Norm-conserving, Zval =  4.0
     Generated by new atomic code, or converted to UPF format
     Using radial grid of  883 points,  3 beta functions with: 
                l(1) =   0
                l(2) =   0
                l(3) =   1

     atomic species   valence    mass     pseudopotential
        Si             4.00    28.08600     Si( 1.00)

     48 Sym. Ops., with inversion, found (24 have fractional translation)


                                    s                        frac. trans.

      isym =  1     identity                                     

 cryst.   s( 1) = (     1          0          0      )
                  (     0          1          0      )
                  (     0          0          1      )

 cart.    s( 1) = (  1.0000000  0.0000000  0.0000000 )
                  (  0.0000000  1.0000000  0.0000000 )
                  (  0.0000000  0.0000000  1.0000000 )


      isym =  2     180 deg rotation - cart. axis [0,0,1]        

 cryst.   s( 2) = (     0          1         -1      )
                  (     1          0         -1      )
                  (     0          0         -1      )

 cart.    s( 2) = ( -1.0000000  0.0000000  0.0000000 )
                  (  0.0000000 -1.0000000  0.0000000 )
                  (  0.0000000  0.0000000  1.0000000 )


      isym =  3     180 deg rotation - cart. axis [0,1,0]        

 cryst.   s( 3) = (    -1          0          0      )
                  (    -1          0          1      )
                  (    -1          1          0      )

 cart.    s( 3) = ( -1.0000000  0.0000000  0.0000000 )
                  (  0.0000000  1.0000000  0.0000000 )
                  (  0.0000000  0.0000000 -1.0000000 )


      isym =  4     180 deg rotation - cart. axis [1,0,0]        

 cryst.   s( 4) = (     0         -1          1      )
                  (     0         -1          0      )
                  (     1         -1          0      )

 cart.    s( 4) = (  1.0000000  0.0000000  0.0000000 )
                  (  0.0000000 -1.0000000  0.0000000 )
                  (  0.0000000  0.0000000 -1.0000000 )


      isym =  5     180 deg rotation - cart. axis [1,1,0]        

 cryst.   s( 5) = (     0         -1          0      )    f =(  0.2500000 )
                  (    -1          0          0      )       (  0.2500000 )
                  (     0          0         -1      )       (  0.2500000 )

 cart.    s( 5) = (  0.0000000  1.0000000  0.0000000 )    f =( -0.2500000 )
                  (  1.0000000  0.0000000  0.0000000 )       (  0.2500000 )
                  (  0.0000000  0.0000000 -1.0000000 )       (  0.2500000 )


      isym =  6     180 deg rotation - cart. axis [1,-1,0]       

 cryst.   s( 6) = (    -1          0          1      )    f =(  0.2500000 )
                  (     0         -1          1      )       (  0.2500000 )
                  (     0          0          1      )       (  0.2500000 )

 cart.    s( 6) = (  0.0000000 -1.0000000  0.0000000 )    f =( -0.2500000 )
                  ( -1.0000000  0.0000000  0.0000000 )       (  0.2500000 )
                  (  0.0000000  0.0000000 -1.0000000 )       (  0.2500000 )


      isym =  7      90 deg rotation - cart. axis [0,0,-1]       

 cryst.   s( 7) = (     0          1          0      )    f =(  0.2500000 )
                  (     0          1         -1      )       (  0.2500000 )
                  (    -1          1          0      )       (  0.2500000 )

 cart.    s( 7) = (  0.0000000  1.0000000  0.0000000 )    f =( -0.2500000 )
                  ( -1.0000000  0.0000000  0.0000000 )       (  0.2500000 )
                  (  0.0000000  0.0000000  1.0000000 )       (  0.2500000 )


      isym =  8      90 deg rotation - cart. axis [0,0,1]        

 cryst.   s( 8) = (     1          0         -1      )    f =(  0.2500000 )
                  (     1          0          0      )       (  0.2500000 )
                  (     1         -1          0      )       (  0.2500000 )

 cart.    s( 8) = (  0.0000000 -1.0000000  0.0000000 )    f =( -0.2500000 )
                  (  1.0000000  0.0000000  0.0000000 )       (  0.2500000 )
                  (  0.0000000  0.0000000  1.0000000 )       (  0.2500000 )


      isym =  9     180 deg rotation - cart. axis [1,0,1]        

 cryst.   s( 9) = (    -1          0          0      )    f =(  0.2500000 )
                  (     0          0         -1      )       (  0.2500000 )
                  (     0         -1          0      )       (  0.2500000 )

 cart.    s( 9) = (  0.0000000  0.0000000  1.0000000 )    f =( -0.2500000 )
                  (  0.0000000 -1.0000000  0.0000000 )       (  0.2500000 )
                  (  1.0000000  0.0000000  0.0000000 )       (  0.2500000 )


      isym = 10     180 deg rotation - cart. axis [-1,0,1]       

 cryst.   s(10) = (     1          0          0      )    f =(  0.2500000 )
                  (     1         -1          0      )       (  0.2500000 )
                  (     1          0         -1      )       (  0.2500000 )

 cart.    s(10) = (  0.0000000  0.0000000 -1.0000000 )    f =( -0.2500000 )
                  (  0.0000000 -1.0000000  0.0000000 )       (  0.2500000 )
                  ( -1.0000000  0.0000000  0.0000000 )       (  0.2500000 )


      isym = 11      90 deg rotation - cart. axis [0,1,0]        

 cryst.   s(11) = (     0          1         -1      )    f =(  0.2500000 )
                  (    -1          1          0      )       (  0.2500000 )
                  (     0          1          0      )       (  0.2500000 )

 cart.    s(11) = (  0.0000000  0.0000000  1.0000000 )    f =( -0.2500000 )
                  (  0.0000000  1.0000000  0.0000000 )       (  0.2500000 )
                  ( -1.0000000  0.0000000  0.0000000 )       (  0.2500000 )


      isym = 12      90 deg rotation - cart. axis [0,-1,0]       

 cryst.   s(12) = (     0         -1          1      )    f =(  0.2500000 )
                  (     0          0          1      )       (  0.2500000 )
                  (    -1          0          1      )       (  0.2500000 )

 cart.    s(12) = (  0.0000000  0.0000000 -1.0000000 )    f =( -0.2500000 )
                  (  0.0000000  1.0000000  0.0000000 )       (  0.2500000 )
                  (  1.0000000  0.0000000  0.0000000 )       (  0.2500000 )


      isym = 13     180 deg rotation - cart. axis [0,1,1]        

 cryst.   s(13) = (    -1          1          0      )    f =(  0.2500000 )
                  (     0          1          0      )       (  0.2500000 )
                  (     0          1         -1      )       (  0.2500000 )

 cart.    s(13) = ( -1.0000000  0.0000000  0.0000000 )    f =( -0.2500000 )
                  (  0.0000000  0.0000000  1.0000000 )       (  0.2500000 )
                  (  0.0000000  1.0000000  0.0000000 )       (  0.2500000 )


      isym = 14     180 deg rotation - cart. axis [0,1,-1]       

 cryst.   s(14) = (     0          0         -1      )    f =(  0.2500000 )
                  (     0         -1          0      )       (  0.2500000 )
                  (    -1          0          0      )       (  0.2500000 )

 cart.    s(14) = ( -1.0000000  0.0000000  0.0000000 )    f =( -0.2500000 )
                  (  0.0000000  0.0000000 -1.0000000 )       (  0.2500000 )
                  (  0.0000000 -1.0000000  0.0000000 )       (  0.2500000 )


      isym = 15      90 deg rotation - cart. axis [-1,0,0]       

 cryst.   s(15) = (     0          0          1      )    f =(  0.2500000 )
                  (    -1          0          1      )       (  0.2500000 )
                  (     0         -1          1      )       (  0.2500000 )

 cart.    s(15) = (  1.0000000  0.0000000  0.0000000 )    f =( -0.2500000 )
                  (  0.0000000  0.0000000  1.0000000 )       (  0.2500000 )
                  (  0.0000000 -1.0000000  0.0000000 )       (  0.2500000 )


      isym = 16      90 deg rotation - cart. axis [1,0,0]        

 cryst.   s(16) = (     1         -1          0      )    f =(  0.2500000 )
                  (     1          0         -1      )       (  0.2500000 )
                  (     1          0          0      )       (  0.2500000 )

 cart.    s(16) = (  1.0000000  0.0000000  0.0000000 )    f =( -0.2500000 )
                  (  0.0000000  0.0000000 -1.0000000 )       (  0.2500000 )
                  (  0.0000000  1.0000000  0.0000000 )       (  0.2500000 )


      isym = 17     120 deg rotation - cart. axis [-1,-1,-1]     

 cryst.   s(17) = (    -1          0          1      )
                  (    -1          1          0      )
                  (    -1          0          0      )

 cart.    s(17) = (  0.0000000  1.0000000  0.0000000 )
                  (  0.0000000  0.0000000  1.0000000 )
                  (  1.0000000  0.0000000  0.0000000 )


      isym = 18     120 deg rotation - cart. axis [-1,1,1]       

 cryst.   s(18) = (     0          1          0      )
                  (     0          0          1      )
                  (     1          0          0      )

 cart.    s(18) = (  0.0000000 -1.0000000  0.0000000 )
                  (  0.0000000  0.0000000  1.0000000 )
                  ( -1.0000000  0.0000000  0.0000000 )


      isym = 19     120 deg rotation - cart. axis [1,1,-1]       

 cryst.   s(19) = (     1          0         -1      )
                  (     0          0         -1      )
                  (     0          1         -1      )

 cart.    s(19) = (  0.0000000  1.0000000  0.0000000 )
                  (  0.0000000  0.0000000 -1.0000000 )
                  ( -1.0000000  0.0000000  0.0000000 )


      isym = 20     120 deg rotation - cart. axis [1,-1,1]       

 cryst.   s(20) = (     0         -1          0      )
                  (     1         -1          0      )
                  (     0         -1          1      )

 cart.    s(20) = (  0.0000000 -1.0000000  0.0000000 )
                  (  0.0000000  0.0000000 -1.0000000 )
                  (  1.0000000  0.0000000  0.0000000 )


      isym = 21     120 deg rotation - cart. axis [1,1,1]        

 cryst.   s(21) = (     0          0         -1      )
                  (     0          1         -1      )
                  (     1          0         -1      )

 cart.    s(21) = (  0.0000000  0.0000000  1.0000000 )
                  (  1.0000000  0.0000000  0.0000000 )
                  (  0.0000000  1.0000000  0.0000000 )


      isym = 22     120 deg rotation - cart. axis [-1,1,-1]      

 cryst.   s(22) = (    -1          1          0      )
                  (    -1          0          0      )
                  (    -1          0          1      )

 cart.    s(22) = (  0.0000000  0.0000000  1.0000000 )
                  ( -1.0000000  0.0000000  0.0000000 )
                  (  0.0000000 -1.0000000  0.0000000 )


      isym = 23     120 deg rotation - cart. axis [1,-1,-1]      

 cryst.   s(23) = (     0          0          1      )
                  (     1          0          0      )
                  (     0          1          0      )

 cart.    s(23) = (  0.0000000  0.0000000 -1.0000000 )
                  ( -1.0000000  0.0000000  0.0000000 )
                  (  0.0000000  1.0000000  0.0000000 )


      isym = 24     120 deg rotation - cart. axis [-1,-1,1]      

 cryst.   s(24) = (     1         -1          0      )
                  (     0         -1          1      )
                  (     0         -1          0      )

 cart.    s(24) = (  0.0000000  0.0000000 -1.0000000 )
                  (  1.0000000  0.0000000  0.0000000 )
                  (  0.0000000 -1.0000000  0.0000000 )


      isym = 25     inversion                                    

 cryst.   s(25) = (    -1          0          0      )    f =(  0.2500000 )
                  (     0         -1          0      )       (  0.2500000 )
                  (     0          0         -1      )       (  0.2500000 )

 cart.    s(25) = ( -1.0000000  0.0000000  0.0000000 )    f =( -0.2500000 )
                  (  0.0000000 -1.0000000  0.0000000 )       (  0.2500000 )
                  (  0.0000000  0.0000000 -1.0000000 )       (  0.2500000 )


      isym = 26     inv. 180 deg rotation - cart. axis [0,0,1]   

 cryst.   s(26) = (     0         -1          1      )    f =(  0.2500000 )
                  (    -1          0          1      )       (  0.2500000 )
                  (     0          0          1      )       (  0.2500000 )

 cart.    s(26) = (  1.0000000  0.0000000  0.0000000 )    f =( -0.2500000 )
                  (  0.0000000  1.0000000  0.0000000 )       (  0.2500000 )
                  (  0.0000000  0.0000000 -1.0000000 )       (  0.2500000 )


      isym = 27     inv. 180 deg rotation - cart. axis [0,1,0]   

 cryst.   s(27) = (     1          0          0      )    f =(  0.2500000 )
                  (     1          0         -1      )       (  0.2500000 )
                  (     1         -1          0      )       (  0.2500000 )

 cart.    s(27) = (  1.0000000  0.0000000  0.0000000 )    f =( -0.2500000 )
                  (  0.0000000 -1.0000000  0.0000000 )       (  0.2500000 )
                  (  0.0000000  0.0000000  1.0000000 )       (  0.2500000 )


      isym = 28     inv. 180 deg rotation - cart. axis [1,0,0]   

 cryst.   s(28) = (     0          1         -1      )    f =(  0.2500000 )
                  (     0          1          0      )       (  0.2500000 )
                  (    -1          1          0      )       (  0.2500000 )

 cart.    s(28) = ( -1.0000000  0.0000000  0.0000000 )    f =( -0.2500000 )
                  (  0.0000000  1.0000000  0.0000000 )       (  0.2500000 )
                  (  0.0000000  0.0000000  1.0000000 )       (  0.2500000 )


      isym = 29     inv. 180 deg rotation - cart. axis [1,1,0]   

 cryst.   s(29) = (     0          1          0      )
                  (     1          0          0      )
                  (     0          0          1      )

 cart.    s(29) = (  0.0000000 -1.0000000  0.0000000 )
                  ( -1.0000000  0.0000000  0.0000000 )
                  (  0.0000000  0.0000000  1.0000000 )


      isym = 30     inv. 180 deg rotation - cart. axis [1,-1,0]  

 cryst.   s(30) = (     1          0         -1      )
                  (     0          1         -1      )
                  (     0          0         -1      )

 cart.    s(30) = (  0.0000000  1.0000000  0.0000000 )
                  (  1.0000000  0.0000000  0.0000000 )
                  (  0.0000000  0.0000000  1.0000000 )


      isym = 31     inv.  90 deg rotation - cart. axis [0,0,-1]  

 cryst.   s(31) = (     0         -1          0      )
                  (     0         -1          1      )
                  (     1         -1          0      )

 cart.    s(31) = (  0.0000000 -1.0000000  0.0000000 )
                  (  1.0000000  0.0000000  0.0000000 )
                  (  0.0000000  0.0000000 -1.0000000 )


      isym = 32     inv.  90 deg rotation - cart. axis [0,0,1]   

 cryst.   s(32) = (    -1          0          1      )
                  (    -1          0          0      )
                  (    -1          1          0      )

 cart.    s(32) = (  0.0000000  1.0000000  0.0000000 )
                  ( -1.0000000  0.0000000  0.0000000 )
                  (  0.0000000  0.0000000 -1.0000000 )


      isym = 33     inv. 180 deg rotation - cart. axis [1,0,1]   

 cryst.   s(33) = (     1          0          0      )
                  (     0          0          1      )
                  (     0          1          0      )

 cart.    s(33) = (  0.0000000  0.0000000 -1.0000000 )
                  (  0.0000000  1.0000000  0.0000000 )
                  ( -1.0000000  0.0000000  0.0000000 )


      isym = 34     inv. 180 deg rotation - cart. axis [-1,0,1]  

 cryst.   s(34) = (    -1          0          0      )
                  (    -1          1          0      )
                  (    -1          0          1      )

 cart.    s(34) = (  0.0000000  0.0000000  1.0000000 )
                  (  0.0000000  1.0000000  0.0000000 )
                  (  1.0000000  0.0000000  0.0000000 )


      isym = 35     inv.  90 deg rotation - cart. axis [0,1,0]   

 cryst.   s(35) = (     0         -1          1      )
                  (     1         -1          0      )
                  (     0         -1          0      )

 cart.    s(35) = (  0.0000000  0.0000000 -1.0000000 )
                  (  0.0000000 -1.0000000  0.0000000 )
                  (  1.0000000  0.0000000  0.0000000 )


      isym = 36     inv.  90 deg rotation - cart. axis [0,-1,0]  

 cryst.   s(36) = (     0          1         -1      )
                  (     0          0         -1      )
                  (     1          0         -1      )

 cart.    s(36) = (  0.0000000  0.0000000  1.0000000 )
                  (  0.0000000 -1.0000000  0.0000000 )
                  ( -1.0000000  0.0000000  0.0000000 )


      isym = 37     inv. 180 deg rotation - cart. axis [0,1,1]   

 cryst.   s(37) = (     1         -1          0      )
                  (     0         -1          0      )
                  (     0         -1          1      )

 cart.    s(37) = (  1.0000000  0.0000000  0.0000000 )
                  (  0.0000000  0.0000000 -1.0000000 )
                  (  0.0000000 -1.0000000  0.0000000 )


      isym = 38     inv. 180 deg rotation - cart. axis [0,1,-1]  

 cryst.   s(38) = (     0          0          1      )
                  (     0          1          0      )
                  (     1          0          0      )

 cart.    s(38) = (  1.0000000  0.0000000  0.0000000 )
                  (  0.0000000  0.0000000  1.0000000 )
                  (  0.0000000  1.0000000  0.0000000 )


      isym = 39     inv.  90 deg rotation - cart. axis [-1,0,0]  

 cryst.   s(39) = (     0          0         -1      )
                  (     1          0         -1      )
                  (     0          1         -1      )

 cart.    s(39) = ( -1.0000000  0.0000000  0.0000000 )
                  (  0.0000000  0.0000000 -1.0000000 )
                  (  0.0000000  1.0000000  0.0000000 )


      isym = 40     inv.  90 deg rotation - cart. axis [1,0,0]   

 cryst.   s(40) = (    -1          1          0      )
                  (    -1          0          1      )
                  (    -1          0          0      )

 cart.    s(40) = ( -1.0000000  0.0000000  0.0000000 )
                  (  0.0000000  0.0000000  1.0000000 )
                  (  0.0000000 -1.0000000  0.0000000 )


      isym = 41     inv. 120 deg rotation - cart. axis [-1,-1,-1]

 cryst.   s(41) = (     1          0         -1      )    f =(  0.2500000 )
                  (     1         -1          0      )       (  0.2500000 )
                  (     1          0          0      )       (  0.2500000 )

 cart.    s(41) = (  0.0000000 -1.0000000  0.0000000 )    f =( -0.2500000 )
                  (  0.0000000  0.0000000 -1.0000000 )       (  0.2500000 )
                  ( -1.0000000  0.0000000  0.0000000 )       (  0.2500000 )


      isym = 42     inv. 120 deg rotation - cart. axis [-1,1,1]  

 cryst.   s(42) = (     0         -1          0      )    f =(  0.2500000 )
                  (     0          0         -1      )       (  0.2500000 )
                  (    -1          0          0      )       (  0.2500000 )

 cart.    s(42) = (  0.0000000  1.0000000  0.0000000 )    f =( -0.2500000 )
                  (  0.0000000  0.0000000 -1.0000000 )       (  0.2500000 )
                  (  1.0000000  0.0000000  0.0000000 )       (  0.2500000 )


      isym = 43     inv. 120 deg rotation - cart. axis [1,1,-1]  

 cryst.   s(43) = (    -1          0          1      )    f =(  0.2500000 )
                  (     0          0          1      )       (  0.2500000 )
                  (     0         -1          1      )       (  0.2500000 )

 cart.    s(43) = (  0.0000000 -1.0000000  0.0000000 )    f =( -0.2500000 )
                  (  0.0000000  0.0000000  1.0000000 )       (  0.2500000 )
                  (  1.0000000  0.0000000  0.0000000 )       (  0.2500000 )


      isym = 44     inv. 120 deg rotation - cart. axis [1,-1,1]  

 cryst.   s(44) = (     0          1          0      )    f =(  0.2500000 )
                  (    -1          1          0      )       (  0.2500000 )
                  (     0          1         -1      )       (  0.2500000 )

 cart.    s(44) = (  0.0000000  1.0000000  0.0000000 )    f =( -0.2500000 )
                  (  0.0000000  0.0000000  1.0000000 )       (  0.2500000 )
                  ( -1.0000000  0.0000000  0.0000000 )       (  0.2500000 )


      isym = 45     inv. 120 deg rotation - cart. axis [1,1,1]   

 cryst.   s(45) = (     0          0          1      )    f =(  0.2500000 )
                  (     0         -1          1      )       (  0.2500000 )
                  (    -1          0          1      )       (  0.2500000 )

 cart.    s(45) = (  0.0000000  0.0000000 -1.0000000 )    f =( -0.2500000 )
                  ( -1.0000000  0.0000000  0.0000000 )       (  0.2500000 )
                  (  0.0000000 -1.0000000  0.0000000 )       (  0.2500000 )


      isym = 46     inv. 120 deg rotation - cart. axis [-1,1,-1] 

 cryst.   s(46) = (     1         -1          0      )    f =(  0.2500000 )
                  (     1          0          0      )       (  0.2500000 )
                  (     1          0         -1      )       (  0.2500000 )

 cart.    s(46) = (  0.0000000  0.0000000 -1.0000000 )    f =( -0.2500000 )
                  (  1.0000000  0.0000000  0.0000000 )       (  0.2500000 )
                  (  0.0000000  1.0000000  0.0000000 )       (  0.2500000 )


      isym = 47     inv. 120 deg rotation - cart. axis [1,-1,-1] 

 cryst.   s(47) = (     0          0         -1      )    f =(  0.2500000 )
                  (    -1          0          0      )       (  0.2500000 )
                  (     0         -1          0      )       (  0.2500000 )

 cart.    s(47) = (  0.0000000  0.0000000  1.0000000 )    f =( -0.2500000 )
                  (  1.0000000  0.0000000  0.0000000 )       (  0.2500000 )
                  (  0.0000000 -1.0000000  0.0000000 )       (  0.2500000 )


      isym = 48     inv. 120 deg rotation - cart. axis [-1,-1,1] 

 cryst.   s(48) = (    -1          1          0      )    f =(  0.2500000 )
                  (     0          1         -1      )       (  0.2500000 )
                  (     0          1          0      )       (  0.2500000 )

 cart.    s(48) = (  0.0000000  0.0000000  1.0000000 )    f =( -0.2500000 )
                  ( -1.0000000  0.0000000  0.0000000 )       (  0.2500000 )
                  (  0.0000000  1.0000000  0.0000000 )       (  0.2500000 )


     point group O_h (m-3m) 
     there are 10 classes
     the character table:

       E     8C3   3C2   6C4   6C2'  i     8S6   3s_h  6S4   6s_d 
A_1g   1.00  1.00  1.00  1.00  1.00  1.00  1.00  1.00  1.00  1.00
A_2g   1.00  1.00  1.00 -1.00 -1.00  1.00  1.00  1.00 -1.00 -1.00
E_g    2.00 -1.00  2.00  0.00  0.00  2.00 -1.00  2.00  0.00  0.00
T_1g   3.00  0.00 -1.00  1.00 -1.00  3.00  0.00 -1.00  1.00 -1.00
T_2g   3.00  0.00 -1.00 -1.00  1.00  3.00  0.00 -1.00 -1.00  1.00
A_1u   1.00  1.00  1.00  1.00  1.00 -1.00 -1.00 -1.00 -1.00 -1.00
A_2u   1.00  1.00  1.00 -1.00 -1.00 -1.00 -1.00 -1.00  1.00  1.00
E_u    2.00 -1.00  2.00  0.00  0.00 -2.00  1.00 -2.00  0.00  0.00
T_1u   3.00  0.00 -1.00  1.00 -1.00 -3.00  0.00  1.00 -1.00  1.00
T_2u   3.00  0.00 -1.00 -1.00  1.00 -3.00  0.00  1.00  1.00 -1.00

     the symmetry operations in each class and the name of the first element:

     E        1
          identity                                               
     8C3     17   19   20   18   24   21   22   23
          120 deg rotation - cart. axis [-1,-1,-1]               
     3C2      2    4    3
          180 deg rotation - cart. axis [0,0,1]                  
     6C4      7    8   15   16   12   11
           90 deg rotation - cart. axis [0,0,-1]                 
     6C2'     5    6   14   13   10    9
          180 deg rotation - cart. axis [1,1,0]                  
     i       25
          inversion                                              
     8S6     41   43   44   42   48   45   46   47
          inv. 120 deg rotation - cart. axis [-1,-1,-1]          
     3s_h    26   28   27
          inv. 180 deg rotation - cart. axis [0,0,1]             
     6S4     31   32   39   40   36   35
          inv.  90 deg rotation - cart. axis [0,0,-1]            
     6s_d    29   30   38   37   34   33
          inv. 180 deg rotation - cart. axis [1,1,0]             

   Cartesian axes

     site n.     atom                  positions (alat units)
         1           Si  tau(   1) = (   0.0000000   0.0000000   0.0000000  )
         2           Si  tau(   2) = (   0.2500000   0.2500000   0.2500000  )

   Crystallographic axes

     site n.     atom                  positions (cryst. coord.)
         1           Si  tau(   1) = (  0.0000000  0.0000000  0.0000000  )
         2           Si  tau(   2) = ( -0.2500000  0.7500000 -0.2500000  )

     number of k points=    60
                       cart. coord. in units 2pi/alat
        k(    1) = (  -0.0625000   0.0625000   0.0625000), wk =   0.0078125
        k(    2) = (  -0.1875000   0.1875000  -0.0625000), wk =   0.0234375
        k(    3) = (  -0.3125000   0.3125000  -0.1875000), wk =   0.0234375
        k(    4) = (  -0.4375000   0.4375000  -0.3125000), wk =   0.0234375
        k(    5) = (   0.4375000  -0.4375000   0.5625000), wk =   0.0234375
        k(    6) = (   0.3125000  -0.3125000   0.4375000), wk =   0.0234375
        k(    7) = (   0.1875000  -0.1875000   0.3125000), wk =   0.0234375
        k(    8) = (   0.0625000  -0.0625000   0.1875000), wk =   0.0234375
        k(    9) = (  -0.0625000   0.3125000   0.0625000), wk =   0.0234375
        k(   10) = (  -0.1875000   0.4375000  -0.0625000), wk =   0.0468750
        k(   11) = (  -0.3125000   0.5625000  -0.1875000), wk =   0.0468750
        k(   12) = (   0.5625000  -0.3125000   0.6875000), wk =   0.0468750
        k(   13) = (   0.4375000  -0.1875000   0.5625000), wk =   0.0468750
        k(   14) = (   0.3125000  -0.0625000   0.4375000), wk =   0.0468750
        k(   15) = (   0.1875000   0.0625000   0.3125000), wk =   0.0468750
        k(   16) = (  -0.0625000   0.5625000   0.0625000), wk =   0.0234375
        k(   17) = (  -0.1875000   0.6875000  -0.0625000), wk =   0.0468750
        k(   18) = (   0.6875000  -0.1875000   0.8125000), wk =   0.0468750
        k(   19) = (   0.5625000  -0.0625000   0.6875000), wk =   0.0468750
        k(   20) = (   0.4375000   0.0625000   0.5625000), wk =   0.0468750
        k(   21) = (   0.3125000   0.1875000   0.4375000), wk =   0.0468750
        k(   22) = (  -0.0625000   0.8125000   0.0625000), wk =   0.0234375
        k(   23) = (   0.8125000  -0.0625000   0.9375000), wk =   0.0468750
        k(   24) = (   0.6875000   0.0625000   0.8125000), wk =   0.0468750
        k(   25) = (   0.5625000   0.1875000   0.6875000), wk =   0.0468750
        k(   26) = (   0.4375000   0.3125000   0.5625000), wk =   0.0468750
        k(   27) = (  -0.0625000  -0.9375000   0.0625000), wk =   0.0234375
        k(   28) = (  -0.1875000  -0.8125000  -0.0625000), wk =   0.0468750
        k(   29) = (  -0.3125000  -0.6875000  -0.1875000), wk =   0.0468750
        k(   30) = (  -0.0625000  -0.6875000   0.0625000), wk =   0.0234375
        k(   31) = (  -0.1875000  -0.5625000  -0.0625000), wk =   0.0468750
        k(   32) = (  -0.0625000  -0.4375000   0.0625000), wk =   0.0234375
        k(   33) = (  -0.1875000   0.1875000   0.1875000), wk =   0.0078125
        k(   34) = (  -0.3125000   0.3125000   0.0625000), wk =   0.0234375
        k(   35) = (  -0.4375000   0.4375000  -0.0625000), wk =   0.0234375
        k(   36) = (   0.4375000  -0.4375000   0.8125000), wk =   0.0234375
        k(   37) = (   0.3125000  -0.3125000   0.6875000), wk =   0.0234375
        k(   38) = (   0.1875000  -0.1875000   0.5625000), wk =   0.0234375
        k(   39) = (  -0.1875000   0.4375000   0.1875000), wk =   0.0234375
        k(   40) = (  -0.3125000   0.5625000   0.0625000), wk =   0.0468750
        k(   41) = (   0.5625000  -0.3125000   0.9375000), wk =   0.0468750
        k(   42) = (   0.4375000  -0.1875000   0.8125000), wk =   0.0468750
        k(   43) = (   0.3125000  -0.0625000   0.6875000), wk =   0.0468750
        k(   44) = (  -0.1875000   0.6875000   0.1875000), wk =   0.0234375
        k(   45) = (   0.6875000  -0.1875000   1.0625000), wk =   0.0468750
        k(   46) = (   0.5625000  -0.0625000   0.9375000), wk =   0.0468750
        k(   47) = (   0.4375000   0.0625000   0.8125000), wk =   0.0468750
        k(   48) = (  -0.1875000  -1.0625000   0.1875000), wk =   0.0234375
        k(   49) = (  -0.3125000  -0.9375000   0.0625000), wk =   0.0468750
        k(   50) = (  -0.1875000  -0.8125000   0.1875000), wk =   0.0234375
        k(   51) = (  -0.3125000   0.3125000   0.3125000), wk =   0.0078125
        k(   52) = (  -0.4375000   0.4375000   0.1875000), wk =   0.0234375
        k(   53) = (   0.4375000  -0.4375000   1.0625000), wk =   0.0234375
        k(   54) = (   0.3125000  -0.3125000   0.9375000), wk =   0.0234375
        k(   55) = (  -0.3125000   0.5625000   0.3125000), wk =   0.0234375
        k(   56) = (   0.5625000  -0.3125000   1.1875000), wk =   0.0468750
        k(   57) = (   0.4375000  -0.1875000   1.0625000), wk =   0.0468750
        k(   58) = (  -0.3125000  -1.1875000   0.3125000), wk =   0.0234375
        k(   59) = (  -0.4375000   0.4375000   0.4375000), wk =   0.0078125
        k(   60) = (   0.4375000  -0.4375000   1.3125000), wk =   0.0234375

                       cryst. coord.
        k(    1) = (   0.0625000   0.0625000   0.0625000), wk =   0.0078125
        k(    2) = (   0.0625000   0.0625000   0.1875000), wk =   0.0234375
        k(    3) = (   0.0625000   0.0625000   0.3125000), wk =   0.0234375
        k(    4) = (   0.0625000   0.0625000   0.4375000), wk =   0.0234375
        k(    5) = (   0.0625000   0.0625000  -0.4375000), wk =   0.0234375
        k(    6) = (   0.0625000   0.0625000  -0.3125000), wk =   0.0234375
        k(    7) = (   0.0625000   0.0625000  -0.1875000), wk =   0.0234375
        k(    8) = (   0.0625000   0.0625000  -0.0625000), wk =   0.0234375
        k(    9) = (   0.0625000   0.1875000   0.1875000), wk =   0.0234375
        k(   10) = (   0.0625000   0.1875000   0.3125000), wk =   0.0468750
        k(   11) = (   0.0625000   0.1875000   0.4375000), wk =   0.0468750
        k(   12) = (   0.0625000   0.1875000  -0.4375000), wk =   0.0468750
        k(   13) = (   0.0625000   0.1875000  -0.3125000), wk =   0.0468750
        k(   14) = (   0.0625000   0.1875000  -0.1875000), wk =   0.0468750
        k(   15) = (   0.0625000   0.1875000  -0.0625000), wk =   0.0468750
        k(   16) = (   0.0625000   0.3125000   0.3125000), wk =   0.0234375
        k(   17) = (   0.0625000   0.3125000   0.4375000), wk =   0.0468750
        k(   18) = (   0.0625000   0.3125000  -0.4375000), wk =   0.0468750
        k(   19) = (   0.0625000   0.3125000  -0.3125000), wk =   0.0468750
        k(   20) = (   0.0625000   0.3125000  -0.1875000), wk =   0.0468750
        k(   21) = (   0.0625000   0.3125000  -0.0625000), wk =   0.0468750
        k(   22) = (   0.0625000   0.4375000   0.4375000), wk =   0.0234375
        k(   23) = (   0.0625000   0.4375000  -0.4375000), wk =   0.0468750
        k(   24) = (   0.0625000   0.4375000  -0.3125000), wk =   0.0468750
        k(   25) = (   0.0625000   0.4375000  -0.1875000), wk =   0.0468750
        k(   26) = (   0.0625000   0.4375000  -0.0625000), wk =   0.0468750
        k(   27) = (   0.0625000  -0.4375000  -0.4375000), wk =   0.0234375
        k(   28) = (   0.0625000  -0.4375000  -0.3125000), wk =   0.0468750
        k(   29) = (   0.0625000  -0.4375000  -0.1875000), wk =   0.0468750
        k(   30) = (   0.0625000  -0.3125000  -0.3125000), wk =   0.0234375
        k(   31) = (   0.0625000  -0.3125000  -0.1875000), wk =   0.0468750
        k(   32) = (   0.0625000  -0.1875000  -0.1875000), wk =   0.0234375
        k(   33) = (   0.1875000   0.1875000   0.1875000), wk =   0.0078125
        k(   34) = (   0.1875000   0.1875000   0.3125000), wk =   0.0234375
        k(   35) = (   0.1875000   0.1875000   0.4375000), wk =   0.0234375
        k(   36) = (   0.1875000   0.1875000  -0.4375000), wk =   0.0234375
        k(   37) = (   0.1875000   0.1875000  -0.3125000), wk =   0.0234375
        k(   38) = (   0.1875000   0.1875000  -0.1875000), wk =   0.0234375
        k(   39) = (   0.1875000   0.3125000   0.3125000), wk =   0.0234375
        k(   40) = (   0.1875000   0.3125000   0.4375000), wk =   0.0468750
        k(   41) = (   0.1875000   0.3125000  -0.4375000), wk =   0.0468750
        k(   42) = (   0.1875000   0.3125000  -0.3125000), wk =   0.0468750
        k(   43) = (   0.1875000   0.3125000  -0.1875000), wk =   0.0468750
        k(   44) = (   0.1875000   0.4375000   0.4375000), wk =   0.0234375
        k(   45) = (   0.1875000   0.4375000  -0.4375000), wk =   0.0468750
        k(   46) = (   0.1875000   0.4375000  -0.3125000), wk =   0.0468750
        k(   47) = (   0.1875000   0.4375000  -0.1875000), wk =   0.0468750
        k(   48) = (   0.1875000  -0.4375000  -0.4375000), wk =   0.0234375
        k(   49) = (   0.1875000  -0.4375000  -0.3125000), wk =   0.0468750
        k(   50) = (   0.1875000  -0.3125000  -0.3125000), wk =   0.0234375
        k(   51) = (   0.3125000   0.3125000   0.3125000), wk =   0.0078125
        k(   52) = (   0.3125000   0.3125000   0.4375000), wk =   0.0234375
        k(   53) = (   0.3125000   0.3125000  -0.4375000), wk =   0.0234375
        k(   54) = (   0.3125000   0.3125000  -0.3125000), wk =   0.0234375
        k(   55) = (   0.3125000   0.4375000   0.4375000), wk =   0.0234375
        k(   56) = (   0.3125000   0.4375000  -0.4375000), wk =   0.0468750
        k(   57) = (   0.3125000   0.4375000  -0.3125000), wk =   0.0468750
        k(   58) = (   0.3125000  -0.4375000  -0.4375000), wk =   0.0234375
        k(   59) = (   0.4375000   0.4375000   0.4375000), wk =   0.0078125
        k(   60) = (   0.4375000   0.4375000  -0.4375000), wk =   0.0234375

     Dense  grid:     3143 G-vectors     FFT dimensions: (  24,  24,  24)

     Dynamical RAM for                 wfc:       0.00 MB

     Dynamical RAM for     wfc (w. buffer):       0.19 MB

     Dynamical RAM for                 EXX:      25.43 MB

     Dynamical RAM for           str. fact:       0.01 MB

     Dynamical RAM for           local pot:       0.00 MB

     Dynamical RAM for          nlocal pot:       0.01 MB

     Dynamical RAM for                qrad:       0.15 MB

     Dynamical RAM for          rho,v,vnew:       0.06 MB

     Dynamical RAM for               rhoin:       0.02 MB

     Dynamical RAM for            rho*nmix:       0.10 MB

     Dynamical RAM for           G-vectors:       0.03 MB

     Dynamical RAM for          h,s,v(r/c):       0.00 MB

     Dynamical RAM for          <psi|beta>:       0.00 MB

     Dynamical RAM for                 psi:       0.01 MB

     Dynamical RAM for                hpsi:       0.01 MB

     Dynamical RAM for      wfcinit/wfcrot:       0.01 MB

     Estimated static dynamical RAM per process >      26.06 MB

     Estimated max dynamical RAM per process >      26.07 MB

     Estimated total dynamical RAM >     208.60 MB

     Initial potential from superposition of free atoms

     starting charge    7.99889, renormalised to    8.00000
     Starting wfcs are    8 randomized atomic wfcs

     total cpu time spent up to now is        0.5 secs

     Self-consistent Calculation

     iteration #  1     ecut=    20.00 Ry     beta= 0.30
     Davidson diagonalization with overlap
     ethr =  1.00E-02,  avg # of iterations =  2.0

     Threshold (ethr) on eigenvalues was too large:
     Diagonalizing with lowered threshold

     Davidson diagonalization with overlap
     ethr =  6.12E-04,  avg # of iterations =  1.9

     total cpu time spent up to now is        0.7 secs

     total energy              =     -15.74286500 Ry
     estimated scf accuracy    <       0.05733066 Ry

     iteration #  2     ecut=    20.00 Ry     beta= 0.30
     Davidson diagonalization with overlap
     ethr =  7.17E-04,  avg # of iterations =  1.0

     total cpu time spent up to now is        0.8 secs

     total energy              =     -15.73761788 Ry
     estimated scf accuracy    <       0.02623603 Ry

     iteration #  3     ecut=    20.00 Ry     beta= 0.30
     Davidson diagonalization with overlap
     ethr =  3.28E-04,  avg # of iterations =  1.2

     total cpu time spent up to now is        0.8 secs

     total energy              =     -15.73939468 Ry
     estimated scf accuracy    <       0.00051942 Ry

     iteration #  4     ecut=    20.00 Ry     beta= 0.30
     Davidson diagonalization with overlap
     ethr =  6.49E-06,  avg # of iterations =  3.0

     total cpu time spent up to now is        0.9 secs

     total energy              =     -15.73967360 Ry
     estimated scf accuracy    <       0.00027726 Ry

     iteration #  5     ecut=    20.00 Ry     beta= 0.30
     Davidson diagonalization with overlap
     ethr =  3.47E-06,  avg # of iterations =  1.3

     total cpu time spent up to now is        1.0 secs

     total energy              =     -15.73968843 Ry
     estimated scf accuracy    <       0.00000163 Ry

     iteration #  6     ecut=    20.00 Ry     beta= 0.30
     Davidson diagonalization with overlap
     ethr =  2.04E-08,  avg # of iterations =  7.2

     total cpu time spent up to now is        1.2 secs

     total energy              =     -15.73969815 Ry
     estimated scf accuracy    <       0.00000505 Ry

     iteration #  7     ecut=    20.00 Ry     beta= 0.30
     Davidson diagonalization with overlap
     ethr =  2.04E-08,  avg # of iterations =  1.0

     total cpu time spent up to now is        1.3 secs

     total energy              =     -15.73969764 Ry
     estimated scf accuracy    <       0.00000142 Ry

     iteration #  8     ecut=    20.00 Ry     beta= 0.30
     Davidson diagonalization with overlap
     ethr =  1.78E-08,  avg # of iterations =  1.3

     total cpu time spent up to now is        1.3 secs

     total energy              =     -15.73969775 Ry
     estimated scf accuracy    <       0.00000006 Ry

     iteration #  9     ecut=    20.00 Ry     beta= 0.30
     Davidson diagonalization with overlap
     ethr =  7.03E-10,  avg # of iterations =  3.2

     total cpu time spent up to now is        1.5 secs

     total energy              =     -15.73969776 Ry
     estimated scf accuracy    <       0.00000004 Ry

     iteration # 10     ecut=    20.00 Ry     beta= 0.30
     Davidson diagonalization with overlap
     ethr =  5.07E-10,  avg # of iterations =  1.0

     total cpu time spent up to now is        1.5 secs

     total energy              =     -15.73969776 Ry
     estimated scf accuracy    <       0.00000002 Ry

     iteration # 11     ecut=    20.00 Ry     beta= 0.30
     Davidson diagonalization with overlap
     ethr =  1.91E-10,  avg # of iterations =  1.2

     total cpu time spent up to now is        1.6 secs

     total energy              =     -15.73969776 Ry
     estimated scf accuracy    <          8.4E-09 Ry

     iteration # 12     ecut=    20.00 Ry     beta= 0.30
     Davidson diagonalization with overlap
     ethr =  1.05E-10,  avg # of iterations =  1.5

     total cpu time spent up to now is        1.7 secs

     total energy              =     -15.73969776 Ry
     estimated scf accuracy    <          2.6E-09 Ry

     iteration # 13     ecut=    20.00 Ry     beta= 0.30
     Davidson diagonalization with overlap
     ethr =  3.29E-11,  avg # of iterations =  2.1

     total cpu time spent up to now is        1.8 secs

     total energy              =     -15.73969776 Ry
     estimated scf accuracy    <          1.7E-09 Ry

     iteration # 14     ecut=    20.00 Ry     beta= 0.30
     Davidson diagonalization with overlap
     ethr =  2.16E-11,  avg # of iterations =  1.5

     total cpu time spent up to now is        1.8 secs

     End of self-consistent calculation

          k =-0.0625 0.0625 0.0625 (   405 PWs)   bands (ev):

    -5.5544   5.8996   6.3343   6.3343

     occupation numbers 
     1.0000   1.0000   1.0000   1.0000

          k =-0.1875 0.1875-0.0625 (   391 PWs)   bands (ev):

    -5.2791   4.3983   5.5052   6.2185

     occupation numbers 
     1.0000   1.0000   1.0000   1.0000

          k =-0.3125 0.3125-0.1875 (   396 PWs)   bands (ev):

    -4.6132   2.1288   5.0144   5.7464

     occupation numbers 
     1.0000   1.0000   1.0000   1.0000

          k =-0.4375 0.4375-0.3125 (   403 PWs)   bands (ev):

    -3.6775   0.1903   4.8001   5.3299

     occupation numbers 
     1.0000   1.0000   1.0000   1.0000

          k = 0.4375-0.4375 0.5625 (   401 PWs)   bands (ev):

    -3.2044  -0.5398   4.8558   5.1044

     occupation numbers 
     1.0000   1.0000   1.0000   1.0000

          k = 0.3125-0.3125 0.4375 (   405 PWs)   bands (ev):

    -3.9995   0.7659   5.1217   5.1502

     occupation numbers 
     1.0000   1.0000   1.0000   1.0000

          k = 0.1875-0.1875 0.3125 (   390 PWs)   bands (ev):

    -4.8746   2.8746   5.4006   5.6231

     occupation numbers 
     1.0000   1.0000   1.0000   1.0000

          k = 0.0625-0.0625 0.1875 (   393 PWs)   bands (ev):

    -5.4160   5.1601   5.8926   6.0714

     occupation numbers 
     1.0000   1.0000   1.0000   1.0000

          k =-0.0625 0.3125 0.0625 (   394 PWs)   bands (ev):

    -5.1406   4.2814   5.3182   5.4237

     occupation numbers 
     1.0000   1.0000   1.0000   1.0000

          k =-0.1875 0.4375-0.0625 (   393 PWs)   bands (ev):

    -4.6014   2.7600   4.3278   5.1544

     occupation numbers 
     1.0000   1.0000   1.0000   1.0000

          k =-0.3125 0.5625-0.1875 (   400 PWs)   bands (ev):

    -3.7286   0.8430   3.8417   4.7248

     occupation numbers 
     1.0000   1.0000   1.0000   1.0000

          k = 0.5625-0.3125 0.6875 (   398 PWs)   bands (ev):

    -2.9297  -0.4164   3.5522   4.6259

     occupation numbers 
     1.0000   1.0000   1.0000   1.0000

          k = 0.4375-0.1875 0.5625 (   400 PWs)   bands (ev):

    -3.4119   0.3045   3.4678   4.9228

     occupation numbers 
     1.0000   1.0000   1.0000   1.0000

          k = 0.3125-0.0625 0.4375 (   399 PWs)   bands (ev):

    -4.3455   2.0911   3.7565   5.4492

     occupation numbers 
     1.0000   1.0000   1.0000   1.0000

          k = 0.1875 0.0625 0.3125 (   392 PWs)   bands (ev):

    -5.0065   3.5816   4.9133   5.8359

     occupation numbers 
     1.0000   1.0000   1.0000   1.0000

          k =-0.0625 0.5625 0.0625 (   405 PWs)   bands (ev):

    -4.1904   2.2816   4.1793   4.3029

     occupation numbers 
     1.0000   1.0000   1.0000   1.0000

          k =-0.1875 0.6875-0.0625 (   405 PWs)   bands (ev):

    -3.4163   1.0190   3.3661   3.9439

     occupation numbers 
     1.0000   1.0000   1.0000   1.0000

          k = 0.6875-0.1875 0.8125 (   404 PWs)   bands (ev):

    -2.4823  -0.2229   2.5008   3.9123

     occupation numbers 
     1.0000   1.0000   1.0000   1.0000

          k = 0.5625-0.0625 0.6875 (   397 PWs)   bands (ev):

    -2.5527  -0.1285   2.1303   4.2692

     occupation numbers 
     1.0000   1.0000   1.0000   1.0000

          k = 0.4375 0.0625 0.5625 (   404 PWs)   bands (ev):

    -3.4833   0.8345   2.7637   4.8758

     occupation numbers 
     1.0000   1.0000   1.0000   1.0000

          k = 0.3125 0.1875 0.4375 (   399 PWs)   bands (ev):

    -4.2279   1.4472   4.4634   5.3490

     occupation numbers 
     1.0000   1.0000   1.0000   1.0000

          k =-0.0625 0.8125 0.0625 (   407 PWs)   bands (ev):

    -2.7461   0.1412   3.4674   3.6956

     occupation numbers 
     1.0000   1.0000   1.0000   1.0000

          k = 0.8125-0.0625 0.9375 (   407 PWs)   bands (ev):

    -1.8069  -0.8715   2.8841   3.4403

     occupation numbers 
     1.0000   1.0000   1.0000   1.0000

          k = 0.6875 0.0625 0.8125 (   401 PWs)   bands (ev):

    -1.8925  -0.7112   2.1230   3.7652

     occupation numbers 
     1.0000   1.0000   1.0000   1.0000

          k = 0.5625 0.1875 0.6875 (   403 PWs)   bands (ev):

    -2.6677  -0.3458   2.7324   4.3861

     occupation numbers 
     1.0000   1.0000   1.0000   1.0000

          k = 0.4375 0.3125 0.5625 (   398 PWs)   bands (ev):

    -3.2978  -0.2232   4.2960   4.9994

     occupation numbers 
     1.0000   1.0000   1.0000   1.0000

          k =-0.0625-0.9375 0.0625 (   400 PWs)   bands (ev):

    -1.8633  -0.8922   3.3258   3.5717

     occupation numbers 
     1.0000   1.0000   1.0000   1.0000

          k =-0.1875-0.8125-0.0625 (   407 PWs)   bands (ev):

    -2.6557   0.0772   3.0492   3.6035

     occupation numbers 
     1.0000   1.0000   1.0000   1.0000

          k =-0.3125-0.6875-0.1875 (   402 PWs)   bands (ev):

    -3.1340   0.2994   3.1404   4.2220

     occupation numbers 
     1.0000   1.0000   1.0000   1.0000

          k =-0.0625-0.6875 0.0625 (   403 PWs)   bands (ev):

    -3.5259   1.2108   3.7516   3.9413

     occupation numbers 
     1.0000   1.0000   1.0000   1.0000

          k =-0.1875-0.5625-0.0625 (   402 PWs)   bands (ev):

    -4.0688   1.9147   3.8034   4.4747

     occupation numbers 
     1.0000   1.0000   1.0000   1.0000

          k =-0.0625-0.4375 0.0625 (   398 PWs)   bands (ev):

    -4.7307   3.3161   4.7474   4.7697

     occupation numbers 
     1.0000   1.0000   1.0000   1.0000

          k =-0.1875 0.1875 0.1875 (   387 PWs)   bands (ev):

    -5.1436   3.6543   5.8829   5.8829

     occupation numbers 
     1.0000   1.0000   1.0000   1.0000

          k =-0.3125 0.3125 0.0625 (   390 PWs)   bands (ev):

    -4.7401   2.8236   4.3252   5.9087

     occupation numbers 
     1.0000   1.0000   1.0000   1.0000

          k =-0.4375 0.4375-0.0625 (   402 PWs)   bands (ev):

    -3.9692   1.4396   3.2120   5.3877

     occupation numbers 
     1.0000   1.0000   1.0000   1.0000

          k = 0.4375-0.4375 0.8125 (   404 PWs)   bands (ev):

    -3.0369  -0.1094   3.0758   4.8386

     occupation numbers 
     1.0000   1.0000   1.0000   1.0000

          k = 0.3125-0.3125 0.6875 (   401 PWs)   bands (ev):

    -3.0217  -0.1377   3.3907   4.5087

     occupation numbers 
     1.0000   1.0000   1.0000   1.0000

          k = 0.1875-0.1875 0.5625 (   399 PWs)   bands (ev):

    -3.9531   1.4351   4.0166   4.4811

     occupation numbers 
     1.0000   1.0000   1.0000   1.0000

          k =-0.1875 0.4375 0.1875 (   396 PWs)   bands (ev):

    -4.4756   2.1372   4.8760   4.9113

     occupation numbers 
     1.0000   1.0000   1.0000   1.0000

          k =-0.3125 0.5625 0.0625 (   405 PWs)   bands (ev):

    -3.8298   1.3855   3.2695   4.7144

     occupation numbers 
     1.0000   1.0000   1.0000   1.0000

          k = 0.5625-0.3125 0.9375 (   403 PWs)   bands (ev):

    -2.9062   0.2689   2.4485   4.1201

     occupation numbers 
     1.0000   1.0000   1.0000   1.0000

          k = 0.4375-0.1875 0.8125 (   402 PWs)   bands (ev):

    -2.3952  -0.3746   2.4631   3.7929

     occupation numbers 
     1.0000   1.0000   1.0000   1.0000

          k = 0.3125-0.0625 0.6875 (   406 PWs)   bands (ev):

    -3.2042   0.6776   2.8900   3.9804

     occupation numbers 
     1.0000   1.0000   1.0000   1.0000

          k =-0.1875 0.6875 0.1875 (   402 PWs)   bands (ev):

    -3.3178   0.7260   3.2436   4.1415

     occupation numbers 
     1.0000   1.0000   1.0000   1.0000

          k = 0.6875-0.1875 1.0625 (   403 PWs)   bands (ev):

    -2.4874  -0.0678   2.6305   3.4211

     occupation numbers 
     1.0000   1.0000   1.0000   1.0000

          k = 0.5625-0.0625 0.9375 (   403 PWs)   bands (ev):

    -1.6473  -0.8366   2.2902   2.8977

     occupation numbers 
     1.0000   1.0000   1.0000   1.0000

          k = 0.4375 0.0625 0.8125 (   401 PWs)   bands (ev):

    -2.2700  -0.2854   2.2916   3.3923

     occupation numbers 
     1.0000   1.0000   1.0000   1.0000

          k =-0.1875-1.0625 0.1875 (   405 PWs)   bands (ev):

    -1.8212  -0.8241   2.4005   3.7899

     occupation numbers 
     1.0000   1.0000   1.0000   1.0000

          k =-0.3125-0.9375 0.0625 (   401 PWs)   bands (ev):

    -1.7182  -0.8475   2.4982   3.1269

     occupation numbers 
     1.0000   1.0000   1.0000   1.0000

          k =-0.1875-0.8125 0.1875 (   405 PWs)   bands (ev):

    -2.5889  -0.0359   2.6842   3.9083

     occupation numbers 
     1.0000   1.0000   1.0000   1.0000

          k =-0.3125 0.3125 0.3125 (   401 PWs)   bands (ev):

    -4.3633   1.4034   5.4622   5.4622

     occupation numbers 
     1.0000   1.0000   1.0000   1.0000

          k =-0.4375 0.4375 0.1875 (   400 PWs)   bands (ev):

    -3.8673   0.8241   3.9684   5.3741

     occupation numbers 
     1.0000   1.0000   1.0000   1.0000

          k = 0.4375-0.4375 1.0625 (   403 PWs)   bands (ev):

    -3.0472   0.3230   2.3671   4.7716

     occupation numbers 
     1.0000   1.0000   1.0000   1.0000

          k = 0.3125-0.3125 0.9375 (   400 PWs)   bands (ev):

    -2.1927  -0.4644   2.0037   4.2066

     occupation numbers 
     1.0000   1.0000   1.0000   1.0000

          k =-0.3125 0.5625 0.3125 (   401 PWs)   bands (ev):

    -3.5399   0.2467   4.3285   4.7888

     occupation numbers 
     1.0000   1.0000   1.0000   1.0000

          k = 0.5625-0.3125 1.1875 (   403 PWs)   bands (ev):

    -2.8969  -0.0972   2.9662   4.2909

     occupation numbers 
     1.0000   1.0000   1.0000   1.0000

          k = 0.4375-0.1875 1.0625 (   398 PWs)   bands (ev):

    -2.0518  -0.5213   2.0981   3.5498

     occupation numbers 
     1.0000   1.0000   1.0000   1.0000

          k =-0.3125-1.1875 0.3125 (   400 PWs)   bands (ev):

[...]
     occupation numbers 
     1.0000   1.0000   1.0000   1.0000

          k =-0.1875 0.1875 0.1875 (   387 PWs)   bands (ev):

    -7.2081   2.6794   5.1704   5.1704

     occupation numbers 
     1.0000   1.0000   1.0000   1.0000

          k =-0.3125 0.3125 0.0625 (   390 PWs)   bands (ev):

    -6.7604   1.7375   3.4547   5.1848

     occupation numbers 
     1.0000   1.0000   1.0000   1.0000

          k =-0.4375 0.4375-0.0625 (   402 PWs)   bands (ev):

    -5.9019   0.1681   2.1909   4.6049

     occupation numbers 
     1.0000   1.0000   1.0000   1.0000

          k = 0.4375-0.4375 0.8125 (   404 PWs)   bands (ev):

    -4.8618  -1.5823   2.0346   3.9909

     occupation numbers 
     1.0000   1.0000   1.0000   1.0000

          k = 0.3125-0.3125 0.6875 (   401 PWs)   bands (ev):

    -4.8443  -1.6137   2.3927   3.6219

     occupation numbers 
     1.0000   1.0000   1.0000   1.0000

          k = 0.1875-0.1875 0.5625 (   399 PWs)   bands (ev):

    -5.8847   0.1645   3.1019   3.5960

     occupation numbers 
     1.0000   1.0000   1.0000   1.0000

          k =-0.1875 0.4375 0.1875 (   396 PWs)   bands (ev):

    -6.4671   0.9620   4.0742   4.0843

     occupation numbers 
     1.0000   1.0000   1.0000   1.0000

          k =-0.3125 0.5625 0.0625 (   405 PWs)   bands (ev):

    -5.7472   0.1081   2.2590   3.8672

     occupation numbers 
     1.0000   1.0000   1.0000   1.0000

          k = 0.5625-0.3125 0.9375 (   403 PWs)   bands (ev):

    -4.7170  -1.1518   1.3262   3.2045

     occupation numbers 
     1.0000   1.0000   1.0000   1.0000

          k = 0.4375-0.1875 0.8125 (   402 PWs)   bands (ev):

    -4.1438  -1.8789   1.3438   2.8360

     occupation numbers 
     1.0000   1.0000   1.0000   1.0000

          k = 0.3125-0.0625 0.6875 (   406 PWs)   bands (ev):

    -5.0498  -0.6910   1.8285   3.0448

     occupation numbers 
     1.0000   1.0000   1.0000   1.0000

          k =-0.1875 0.6875 0.1875 (   402 PWs)   bands (ev):

    -5.1758  -0.6383   2.2264   3.2111

     occupation numbers 
     1.0000   1.0000   1.0000   1.0000

          k = 0.6875-0.1875 1.0625 (   403 PWs)   bands (ev):

    -4.2487  -1.5316   1.5317   2.4190

     occupation numbers 
     1.0000   1.0000   1.0000   1.0000

          k = 0.5625-0.0625 0.9375 (   403 PWs)   bands (ev):

    -3.3046  -2.3973   1.1461   1.8317

     occupation numbers 
     1.0000   1.0000   1.0000   1.0000

          k = 0.4375 0.0625 0.8125 (   401 PWs)   bands (ev):

    -4.0036  -1.7774   1.1476   2.3878

     occupation numbers 
     1.0000   1.0000   1.0000   1.0000

          k =-0.1875-1.0625 0.1875 (   405 PWs)   bands (ev):

    -3.5032  -2.3836   1.2703   2.8130

     occupation numbers 
     1.0000   1.0000   1.0000   1.0000

          k =-0.3125-0.9375 0.0625 (   401 PWs)   bands (ev):

    -3.3867  -2.4093   1.3810   2.0901

     occupation numbers 
     1.0000   1.0000   1.0000   1.0000

          k =-0.1875-0.8125 0.1875 (   405 PWs)   bands (ev):

    -4.3632  -1.4953   1.5928   2.9474

     occupation numbers 
     1.0000   1.0000   1.0000   1.0000

          k =-0.3125 0.3125 0.3125 (   401 PWs)   bands (ev):

    -6.3430   0.1306   4.6927   4.6927

     occupation numbers 
     1.0000   1.0000   1.0000   1.0000

          k =-0.4375 0.4375 0.1875 (   400 PWs)   bands (ev):

    -5.7892  -0.5270   3.0471   4.5884

     occupation numbers 
     1.0000   1.0000   1.0000   1.0000

          k = 0.4375-0.4375 1.0625 (   403 PWs)   bands (ev):

    -4.8750  -1.0904   1.2330   3.9173

     occupation numbers 
     1.0000   1.0000   1.0000   1.0000

          k = 0.3125-0.3125 0.9375 (   400 PWs)   bands (ev):

    -3.9171  -1.9800   0.8223   3.2827

     occupation numbers 
     1.0000   1.0000   1.0000   1.0000

          k =-0.3125 0.5625 0.3125 (   401 PWs)   bands (ev):

    -5.4229  -1.1819   3.4551   3.9380

     occupation numbers 
     1.0000   1.0000   1.0000   1.0000

          k = 0.5625-0.3125 1.1875 (   403 PWs)   bands (ev):

    -4.7053  -1.5674   1.9138   3.3921

     occupation numbers 
     1.0000   1.0000   1.0000   1.0000

          k = 0.4375-0.1875 1.0625 (   398 PWs)   bands (ev):

    -3.7581  -2.0440   0.9290   2.5653

     occupation numbers 
     1.0000   1.0000   1.0000   1.0000

          k =-0.3125-1.1875 0.3125 (   400 PWs)   bands (ev):

    -4.2872  -1.8784   1.4359   3.3979

     occupation numbers 
     1.0000   1.0000   1.0000   1.0000

          k =-0.4375 0.4375 0.4375 (   401 PWs)   bands (ev):

    -5.3041  -1.7975   4.4336   4.4336

     occupation numbers 
     1.0000   1.0000   1.0000   1.0000

          k = 0.4375-0.4375 1.3125 (   399 PWs)   bands (ev):

    -4.8951  -1.9917   3.0808   4.1240

     occupation numbers 
     1.0000   1.0000   1.0000   1.0000

     highest occupied level (ev):     5.6668

!    total energy              =     -15.75135992 Ry
     estimated scf accuracy    <          9.1E-10 Ry

     convergence has been achieved in   1 iterations

     Using ACE for calculation of exact exchange

     total energy              =     -15.75135992 Ry
     Harris-Foulkes estimate   =     -15.75135992 Ry
     est. exchange err (dexx)  =          1.9E-09 Ry
     - averaged Fock potential =       2.14241767 Ry
     + Fock energy (ACE)       =      -1.07121452 Ry

     EXX: now go back to refine exchange calculation

     total cpu time spent up to now is      391.1 secs

     Self-consistent Calculation

     iteration #  1     ecut=    20.00 Ry     beta= 0.30
     Davidson diagonalization with overlap
     ethr =  5.11E-11,  avg # of iterations =  2.0

     Threshold (ethr) on eigenvalues was too large:
     Diagonalizing with lowered threshold

     Davidson diagonalization with overlap
     ethr =  1.27E-13,  avg # of iterations =  5.3

     total cpu time spent up to now is      391.3 secs

     End of self-consistent calculation

          k =-0.0625 0.0625 0.0625 (   405 PWs)   bands (ev):

    -7.6644   5.2111   5.6668   5.6668

     occupation numbers 
     1.0000   1.0000   1.0000   1.0000

          k =-0.1875 0.1875-0.0625 (   391 PWs)   bands (ev):

    -7.3586   3.5239   4.7789   5.5331

     occupation numbers 
     1.0000   1.0000   1.0000   1.0000

          k =-0.3125 0.3125-0.1875 (   396 PWs)   bands (ev):

    -6.6202   0.9518   4.2219   5.0072

     occupation numbers 
     1.0000   1.0000   1.0000   1.0000

          k =-0.4375 0.4375-0.3125 (   403 PWs)   bands (ev):

    -5.5769  -1.2472   3.9741   4.5377

     occupation numbers 
     1.0000   1.0000   1.0000   1.0000

          k = 0.4375-0.4375 0.5625 (   401 PWs)   bands (ev):

    -5.0475  -2.0728   4.0338   4.2864

     occupation numbers 
     1.0000   1.0000   1.0000   1.0000

          k = 0.3125-0.3125 0.4375 (   405 PWs)   bands (ev):

    -5.9370  -0.5939   4.3139   4.3672

     occupation numbers 
     1.0000   1.0000   1.0000   1.0000

          k = 0.1875-0.1875 0.3125 (   390 PWs)   bands (ev):

    -6.9100   1.7964   4.6374   4.8998

     occupation numbers 
     1.0000   1.0000   1.0000   1.0000

          k = 0.0625-0.0625 0.1875 (   393 PWs)   bands (ev):

    -7.5107   4.3861   5.1935   5.3925

     occupation numbers 
     1.0000   1.0000   1.0000   1.0000

          k =-0.0625 0.3125 0.0625 (   394 PWs)   bands (ev):

    -7.2047   3.3915   4.5497   4.6781

     occupation numbers 
     1.0000   1.0000   1.0000   1.0000

          k =-0.1875 0.4375-0.0625 (   393 PWs)   bands (ev):

    -6.6066   1.6677   3.4538   4.3621

     occupation numbers 
     1.0000   1.0000   1.0000   1.0000

          k =-0.3125 0.5625-0.1875 (   400 PWs)   bands (ev):

    -5.6339  -0.5064   2.9053   3.8752

     occupation numbers 
     1.0000   1.0000   1.0000   1.0000

          k = 0.5625-0.3125 0.6875 (   398 PWs)   bands (ev):

    -4.7410  -1.9302   2.5769   3.7611

     occupation numbers 
     1.0000   1.0000   1.0000   1.0000

          k = 0.4375-0.1875 0.5625 (   400 PWs)   bands (ev):

    -5.2809  -1.1145   2.4806   4.0949

     occupation numbers 
     1.0000   1.0000   1.0000   1.0000

          k = 0.3125-0.0625 0.4375 (   399 PWs)   bands (ev):

    -6.3215   0.9066   2.8097   4.6848

     occupation numbers 
     1.0000   1.0000   1.0000   1.0000

          k = 0.1875 0.0625 0.3125 (   392 PWs)   bands (ev):

    -7.0562   2.5978   4.1157   5.1215

     occupation numbers 
     1.0000   1.0000   1.0000   1.0000

          k =-0.0625 0.5625 0.0625 (   405 PWs)   bands (ev):

    -6.1508   1.1280   3.2720   3.3982

     occupation numbers 
     1.0000   1.0000   1.0000   1.0000

          k =-0.1875 0.6875-0.0625 (   405 PWs)   bands (ev):

    -5.2870  -0.3054   2.3652   2.9985

     occupation numbers 
     1.0000   1.0000   1.0000   1.0000

          k = 0.6875-0.1875 0.8125 (   404 PWs)   bands (ev):

    -4.2432  -1.7063   1.3858   2.9640

     occupation numbers 
     1.0000   1.0000   1.0000   1.0000

          k = 0.5625-0.0625 0.6875 (   397 PWs)   bands (ev):

    -4.3210  -1.6006   0.9653   3.3664

     occupation numbers 
     1.0000   1.0000   1.0000   1.0000

          k = 0.4375 0.0625 0.5625 (   404 PWs)   bands (ev):

    -5.3611  -0.5139   1.6833   4.0449

     occupation numbers 
     1.0000   1.0000   1.0000   1.0000

          k = 0.3125 0.1875 0.4375 (   399 PWs)   bands (ev):

    -6.1914   0.1788   3.6052   4.5750

     occupation numbers 
     1.0000   1.0000   1.0000   1.0000

          k =-0.0625 0.8125 0.0625 (   407 PWs)   bands (ev):

    -4.5381  -1.2993   2.4658   2.7078

     occupation numbers 
     1.0000   1.0000   1.0000   1.0000

          k = 0.8125-0.0625 0.9375 (   407 PWs)   bands (ev):

    -3.4874  -2.4376   1.8164   2.4343

     occupation numbers 
     1.0000   1.0000   1.0000   1.0000

          k = 0.6875 0.0625 0.8125 (   401 PWs)   bands (ev):

    -3.5813  -2.2569   0.9568   2.8001

     occupation numbers 
     1.0000   1.0000   1.0000   1.0000

          k = 0.5625 0.1875 0.6875 (   403 PWs)   bands (ev):

    -4.4484  -1.8486   1.6471   3.4952

     occupation numbers 
     1.0000   1.0000   1.0000   1.0000

          k = 0.4375 0.3125 0.5625 (   398 PWs)   bands (ev):

    -5.1524  -1.7140   3.4156   4.1770

     occupation numbers 
     1.0000   1.0000   1.0000   1.0000

          k =-0.0625-0.9375 0.0625 (   400 PWs)   bands (ev):

    -3.5501  -2.4627   2.3052   2.5668

     occupation numbers 
     1.0000   1.0000   1.0000   1.0000

          k =-0.1875-0.8125-0.0625 (   407 PWs)   bands (ev):

    -4.4375  -1.3692   2.0042   2.6175

     occupation numbers 
     1.0000   1.0000   1.0000   1.0000

          k =-0.3125-0.6875-0.1875 (   402 PWs)   bands (ev):

    -4.9703  -1.1196   2.1112   3.3098

     occupation numbers 
     1.0000   1.0000   1.0000   1.0000

          k =-0.0625-0.6875 0.0625 (   403 PWs)   bands (ev):

    -5.4106  -0.0871   2.7881   2.9874

     occupation numbers 
     1.0000   1.0000   1.0000   1.0000

          k =-0.1875-0.5625-0.0625 (   402 PWs)   bands (ev):

    -6.0144   0.7094   2.8611   3.5954

     occupation numbers 
     1.0000   1.0000   1.0000   1.0000

          k =-0.0625-0.4375 0.0625 (   398 PWs)   bands (ev):

    -6.7500   2.2989   3.9144   3.9275

     occupation numbers 
     1.0000   1.0000   1.0000   1.0000

          k =-0.1875 0.1875 0.1875 (   387 PWs)   bands (ev):

    -7.2080   2.6795   5.1704   5.1704

     occupation numbers 
     1.0000   1.0000   1.0000   1.0000

          k =-0.3125 0.3125 0.0625 (   390 PWs)   bands (ev):

    -6.7603   1.7376   3.4548   5.1849

     occupation numbers 
     1.0000   1.0000   1.0000   1.0000

          k =-0.4375 0.4375-0.0625 (   402 PWs)   bands (ev):

    -5.9019   0.1682   2.1910   4.6050

     occupation numbers 
     1.0000   1.0000   1.0000   1.0000

          k = 0.4375-0.4375 0.8125 (   404 PWs)   bands (ev):

    -4.8618  -1.5822   2.0347   3.9909

     occupation numbers 
     1.0000   1.0000   1.0000   1.0000

          k = 0.3125-0.3125 0.6875 (   401 PWs)   bands (ev):

    -4.8442  -1.6136   2.3928   3.6219

     occupation numbers 
     1.0000   1.0000   1.0000   1.0000

          k = 0.1875-0.1875 0.5625 (   399 PWs)   bands (ev):

    -5.8846   0.1645   3.1019   3.5961

     occupation numbers 
     1.0000   1.0000   1.0000   1.0000

          k =-0.1875 0.4375 0.1875 (   396 PWs)   bands (ev):

    -6.4670   0.9620   4.0743   4.0844

     occupation numbers 
     1.0000   1.0000   1.0000   1.0000

          k =-0.3125 0.5625 0.0625 (   405 PWs)   bands (ev):

    -5.7471   0.1082   2.2591   3.8672

     occupation numbers 
     1.0000   1.0000   1.0000   1.0000

          k = 0.5625-0.3125 0.9375 (   403 PWs)   bands (ev):

    -4.7169  -1.1518   1.3263   3.2045

     occupation numbers 
     1.0000   1.0000   1.0000   1.0000

          k = 0.4375-0.1875 0.8125 (   402 PWs)   bands (ev):

    -4.1437  -1.8788   1.3438   2.8361

     occupation numbers 
     1.0000   1.0000   1.0000   1.0000

          k = 0.3125-0.0625 0.6875 (   406 PWs)   bands (ev):

    -5.0497  -0.6910   1.8286   3.0448

     occupation numbers 
     1.0000   1.0000   1.0000   1.0000

          k =-0.1875 0.6875 0.1875 (   402 PWs)   bands (ev):

    -5.1758  -0.6382   2.2264   3.2112

     occupation numbers 
     1.0000   1.0000   1.0000   1.0000

          k = 0.6875-0.1875 1.0625 (   403 PWs)   bands (ev):

    -4.2486  -1.5315   1.5317   2.4191

     occupation numbers 
     1.0000   1.0000   1.0000   1.0000

          k = 0.5625-0.0625 0.9375 (   403 PWs)   bands (ev):

    -3.3046  -2.3973   1.1461   1.8318

     occupation numbers 
     1.0000   1.0000   1.0000   1.0000

          k = 0.4375 0.0625 0.8125 (   401 PWs)   bands (ev):

    -4.0035  -1.7773   1.1477   2.3879

     occupation numbers 
     1.0000   1.0000   1.0000   1.0000

          k =-0.1875-1.0625 0.1875 (   405 PWs)   bands (ev):

    -3.5031  -2.3835   1.2704   2.8131

     occupation numbers 
     1.0000   1.0000   1.0000   1.0000

          k =-0.3125-0.9375 0.0625 (   401 PWs)   bands (ev):

    -3.3866  -2.4092   1.3811   2.0902

     occupation numbers 
     1.0000   1.0000   1.0000   1.0000

          k =-0.1875-0.8125 0.1875 (   405 PWs)   bands (ev):

    -4.3631  -1.4952   1.5928   2.9475

     occupation numbers 
     1.0000   1.0000   1.0000   1.0000

          k =-0.3125 0.3125 0.3125 (   401 PWs)   bands (ev):

    -6.3429   0.1306   4.6927   4.6927

     occupation numbers 
     1.0000   1.0000   1.0000   1.0000

          k =-0.4375 0.4375 0.1875 (   400 PWs)   bands (ev):

    -5.7891  -0.5269   3.0471   4.5884

     occupation numbers 
     1.0000   1.0000   1.0000   1.0000

          k = 0.4375-0.4375 1.0625 (   403 PWs)   bands (ev):

    -4.8749  -1.0903   1.2330   3.9173

     occupation numbers 
     1.0000   1.0000   1.0000   1.0000

          k = 0.3125-0.3125 0.9375 (   400 PWs)   bands (ev):

    -3.9171  -1.9800   0.8223   3.2828

     occupation numbers 
     1.0000   1.0000   1.0000   1.0000

          k =-0.3125 0.5625 0.3125 (   401 PWs)   bands (ev):

    -5.4228  -1.1818   3.4552   3.9380

     occupation numbers 
     1.0000   1.0000   1.0000   1.0000

          k = 0.5625-0.3125 1.1875 (   403 PWs)   bands (ev):

    -4.7053  -1.5673   1.9139   3.3921

     occupation numbers 
     1.0000   1.0000   1.0000   1.0000

          k = 0.4375-0.1875 1.0625 (   398 PWs)   bands (ev):

    -3.7580  -2.0439   0.9291   2.5654

     occupation numbers 
     1.0000   1.0000   1.0000   1.0000

          k =-0.3125-1.1875 0.3125 (   400 PWs)   bands (ev):

    -4.2871  -1.8783   1.4360   3.3980

     occupation numbers 
     1.0000   1.0000   1.0000   1.0000

          k =-0.4375 0.4375 0.4375 (   401 PWs)   bands (ev):

    -5.3040  -1.7975   4.4336   4.4336

     occupation numbers 
     1.0000   1.0000   1.0000   1.0000

          k = 0.4375-0.4375 1.3125 (   399 PWs)   bands (ev):

    -4.8950  -1.9916   3.0809   4.1241

     occupation numbers 
     1.0000   1.0000   1.0000   1.0000

     highest occupied level (ev):     5.6668

!    total energy              =     -15.75135992 Ry
     estimated scf accuracy    <          1.5E-11 Ry

     convergence has been achieved in   1 iterations

     Using ACE for calculation of exact exchange

!!   total energy              =     -15.75135992 Ry
     Harris-Foulkes estimate   =     -15.75135992 Ry
     est. exchange err (dexx)  =          4.2E-10 Ry
     - averaged Fock potential =       2.14243121 Ry
     + Fock energy (ACE)       =      -1.07121669 Ry

     EXX self-consistency reached

     Writing output data file ./tmp/Si.save/
 
     init_run     :      0.05s CPU      0.07s WALL (       1 calls)
     electrons    :      3.85s CPU      4.52s WALL (       8 calls)

     Called by init_run:
     wfcinit      :      0.05s CPU      0.06s WALL (       1 calls)
     wfcinit:atom :      0.00s CPU      0.00s WALL (      60 calls)
     wfcinit:wfcr :      0.04s CPU      0.05s WALL (      60 calls)
     potinit      :      0.00s CPU      0.00s WALL (       1 calls)
     hinit0       :      0.01s CPU      0.01s WALL (       1 calls)

     Called by electrons:
     c_bands      :      3.40s CPU      4.01s WALL (      40 calls)
     sum_band     :      0.39s CPU      0.45s WALL (      40 calls)
     v_of_rho     :      0.04s CPU      0.04s WALL (      40 calls)
     v_h          :      0.00s CPU      0.00s WALL (      40 calls)
     v_xc         :      0.04s CPU      0.04s WALL (      40 calls)
     mix_rho      :      0.01s CPU      0.01s WALL (      40 calls)

     Called by c_bands:
     init_us_2    :      0.04s CPU      0.05s WALL (    4860 calls)
     cegterg      :      3.30s CPU      3.89s WALL (    2400 calls)

     Called by sum_band:
     sum_band:wei :      0.00s CPU      0.00s WALL (      40 calls)
     sum_band:loo :      0.38s CPU      0.43s WALL (      40 calls)
     sum_band:buf :      0.00s CPU      0.00s WALL (    2400 calls)
     sum_band:ini :      0.02s CPU      0.03s WALL (    2400 calls)

     Called by *egterg:
     cdiaghg      :      0.23s CPU      0.27s WALL (    8795 calls)
     cegterg:over :      0.13s CPU      0.15s WALL (    6935 calls)
     cegterg:upda :      0.02s CPU      0.03s WALL (    6935 calls)
     cegterg:last :      0.03s CPU      0.03s WALL (    6312 calls)
     h_psi        :      2.73s CPU      3.23s WALL (    9395 calls)
     g_psi        :      0.01s CPU      0.01s WALL (    6935 calls)

     Called by h_psi:
     h_psi:calbec :      0.17s CPU      0.20s WALL (    9395 calls)
     vloc_psi     :      2.38s CPU      2.81s WALL (    9395 calls)
     add_vuspsi   :      0.04s CPU      0.04s WALL (    9395 calls)

     General routines
     calbec       :      0.23s CPU      0.28s WALL (   18289 calls)
     fft          :      0.02s CPU      0.03s WALL (     392 calls)
     ffts         :      0.00s CPU      0.00s WALL (      40 calls)
     fftw         :      2.57s CPU      3.03s WALL (   74332 calls)
     fftc         :    333.66s CPU    371.32s WALL ( 7864320 calls)
     fftcw        :      0.22s CPU      0.25s WALL (    5760 calls)
 
     Parallel routines
     fft_scatt_xy :     22.77s CPU     24.95s WALL ( 7944844 calls)
     fft_scatt_yz :    158.67s CPU    177.97s WALL ( 7944844 calls)

     EXX routines
     exx_grid     :      0.35s CPU      0.35s WALL (       1 calls)
     exxinit      :      1.58s CPU      1.69s WALL (       8 calls)
     vexx         :    393.20s CPU    436.89s WALL (     480 calls)
     matcalc      :      0.10s CPU      0.12s WALL (    8894 calls)
     aceupdate    :      0.01s CPU      0.01s WALL (     480 calls)
     vexxace      :      0.12s CPU      0.14s WALL (    7514 calls)
     aceinit      :    393.23s CPU    436.91s WALL (     480 calls)
 
     PWSCF        :   6m39.16s CPU   7m23.69s WALL

 
   This run was terminated on:  16:27:24  16Apr2021            

=------------------------------------------------------------------------------=
   JOB DONE.
=------------------------------------------------------------------------------=
