
     Program PWSCF v.6.7GPU starts on 19Apr2021 at 12:57:54 

     This program is part of the open-source Quantum ESPRESSO suite
     for quantum simulation of materials; please cite
         "P. Giannozzi et al., J. Phys.:Condens. Matter 21 395502 (2009);
         "P. Giannozzi et al., J. Phys.:Condens. Matter 29 465901 (2017);
         "P. Giannozzi et al., J. Chem. Phys. 152 154105 (2020);
          URL http://www.quantum-espresso.org", 
     in publications or presentations arising from this work. More details at
     http://www.quantum-espresso.org/quote

     Parallel version (MPI & OpenMP), running on       2 processor cores
     Number of MPI processes:                 2
     Threads/MPI process:                     1

     MPI processes distributed on     1 nodes
     R & G space division:  proc/nbgrp/npool/nimage =       2
     Waiting for input...
     Reading input from standard input
Warning: card &IONS ignored
Warning: card / ignored
Warning: card &CELL ignored
Warning: card / ignored

     Current dimensions of program PWSCF are:
     Max number of different atomic species (ntypx) = 10
     Max number of k-points (npk) =  40000
     Max angular momentum in pseudopotentials (lmaxx) =  3

     Atomic positions and unit cell read from directory:
     ./tempdir/co.save/
     Atomic positions from file used, from input discarded

     [opt_tetra]  Optimized tetrahedron method is used.

     Subspace diagonalization in iterative solution of the eigenvalue problem:
     a serial algorithm will be used


     Parallelization info
     --------------------
     sticks:   dense  smooth     PW     G-vecs:    dense   smooth      PW
     Min         279     141     42                 8468     2971     546
     Max         280     142     43                 8469     2972     553
     Sum         559     283     85                16937     5943    1099

     Using Slab Decomposition



     bravais-lattice index     =            4
     lattice parameter (alat)  =       4.7630  a.u.
     unit-cell volume          =     146.8025 (a.u.)^3
     number of atoms/cell      =            2
     number of atomic types    =            1
     number of electrons       =        34.00
     number of Kohn-Sham states=           20
     kinetic-energy cutoff     =      45.0000  Ry
     charge density cutoff     =     360.0000  Ry
     Exchange-correlation= SLA  PW   PBE  PBE
                           (   1   4   3   4   0   0   0)

     celldm(1)=   4.715000  celldm(2)=   0.000000  celldm(3)=   1.622000
     celldm(4)=   0.000000  celldm(5)=   0.000000  celldm(6)=   0.000000

     crystal axes: (cart. coord. in units of alat)
               a(1) = (   0.989931  -0.000000   0.000000 )  
               a(2) = (  -0.494966   0.857306  -0.000000 )  
               a(3) = (  -0.000000  -0.000000   1.600851 )  

     reciprocal axes: (cart. coord. in units 2 pi/alat)
               b(1) = (  1.010171  0.583223  0.000000 )  
               b(2) = (  0.000000  1.166445  0.000000 )  
               b(3) = ( -0.000000 -0.000000  0.624668 )  


     PseudoPot. # 1 for Co read from file:
     /home/pietro/repositories/materials-for-max-qe2021-online-school/pseudo/Co_pbe_v1.2.uspp.F.UPF
     MD5 check sum: 5f91765df6ddd3222702df6e7b74a16d
     Pseudo is Ultrasoft + core correction, Zval = 17.0
     Generated by new atomic code, or converted to UPF format
     Using radial grid of  863 points,  6 beta functions with: 
                l(1) =   0
                l(2) =   0
                l(3) =   1
                l(4) =   1
                l(5) =   2
                l(6) =   2
     Q(r) pseudized with  8 coefficients,  rinner =    1.200   1.200   1.200
                                                       1.200   1.200

     atomic species   valence    mass     pseudopotential
        Co            17.00    58.93300     Co( 1.00)

     Starting magnetic structure 
     atomic species   magnetization
        Co           0.700

     24 Sym. Ops., with inversion, found (12 have fractional translation)



   Cartesian axes

     site n.     atom                  positions (alat units)
         1           Co  tau(   1) = (  -0.0000000   0.0000000   0.0000000  )
         2           Co  tau(   2) = (   0.4949657   0.2857686   0.8004256  )

     number of k points=   308 (tetrahedron method)

     Number of k-points >= 100: set verbosity='high' to print them.

     Dense  grid:    16937 G-vectors     FFT dimensions: (  30,  30,  48)

     Smooth grid:     5943 G-vectors     FFT dimensions: (  24,  24,  36)

     Estimated max dynamical RAM per process >      29.91 MB

     Estimated total dynamical RAM >      59.83 MB

     Check: negative core charge=   -0.000020
     Generating pointlists ...
     new r_m :   0.4057 (alat units)  1.9324 (a.u.) for type    1

     The potential is recalculated from file :
     ./tempdir/co.save/charge-density

     Starting wfcs are   26 randomized atomic wfcs

     Band Structure Calculation
     Davidson diagonalization with overlap

     ethr =  2.94E-11,  avg # of iterations = 13.8

     total cpu time spent up to now is       43.5 secs

     End of band structure calculation

     Number of k-points >= 100: set verbosity='high' to print the bands.

     the Fermi energy is    18.4441 ev
     (compare with:    18.4187 eV, computed in scf)

     Writing output data file ./tempdir/co.save/

     init_run     :      0.18s CPU      0.19s WALL (       1 calls)
     electrons    :     41.25s CPU     42.62s WALL (       1 calls)

     Called by init_run:
     wfcinit      :      0.00s CPU      0.00s WALL (       1 calls)
     potinit      :      0.02s CPU      0.02s WALL (       1 calls)
     hinit0       :      0.10s CPU      0.10s WALL (       1 calls)

     Called by electrons:
     c_bands      :     35.42s CPU     36.79s WALL (       1 calls)
     v_of_rho     :      0.02s CPU      0.02s WALL (       1 calls)
     newd         :      0.02s CPU      0.03s WALL (       1 calls)

     Called by c_bands:
     init_us_2    :      0.05s CPU      0.05s WALL (     616 calls)
     cegterg      :     31.75s CPU     32.92s WALL (     627 calls)

     Called by *egterg:
     cdiaghg      :      3.49s CPU      3.63s WALL (    9099 calls)
     h_psi        :     27.61s CPU     28.67s WALL (    9726 calls)
     s_psi        :      0.46s CPU      0.48s WALL (    9726 calls)
     g_psi        :      0.17s CPU      0.18s WALL (    8483 calls)

     Called by h_psi:
     h_psi:calbec :      0.60s CPU      0.62s WALL (    9726 calls)
     vloc_psi     :     26.45s CPU     27.47s WALL (    9726 calls)
     add_vuspsi   :      0.48s CPU      0.50s WALL (    9726 calls)

     General routines
     calbec       :      0.59s CPU      0.61s WALL (    9726 calls)
     fft          :      0.01s CPU      0.01s WALL (      23 calls)
     ffts         :      0.00s CPU      0.00s WALL (       2 calls)
     fftw         :     24.47s CPU     25.41s WALL (  307308 calls)
     interpolate  :      0.00s CPU      0.00s WALL (       2 calls)
     davcio       :      0.05s CPU      0.06s WALL (    1232 calls)

     Parallel routines

     PWSCF        :     42.28s CPU     43.80s WALL


   This run was terminated on:  12:58:38  19Apr2021            

=------------------------------------------------------------------------------=
   JOB DONE.
=------------------------------------------------------------------------------=
