
     Program PWSCF v.6.7GPU starts on 19Apr2021 at 11: 5:57 

     This program is part of the open-source Quantum ESPRESSO suite
     for quantum simulation of materials; please cite
         "P. Giannozzi et al., J. Phys.:Condens. Matter 21 395502 (2009);
         "P. Giannozzi et al., J. Phys.:Condens. Matter 29 465901 (2017);
         "P. Giannozzi et al., J. Chem. Phys. 152 154105 (2020);
          URL http://www.quantum-espresso.org", 
     in publications or presentations arising from this work. More details at
     http://www.quantum-espresso.org/quote

     Parallel version (MPI & OpenMP), running on       2 processor cores
     Number of MPI processes:                 2
     Threads/MPI process:                     1

     MPI processes distributed on     1 nodes
     K-points division:     npool     =       2
     Waiting for input...
     Reading input from standard input

     Current dimensions of program PWSCF are:
     Max number of different atomic species (ntypx) = 10
     Max number of k-points (npk) =  40000
     Max angular momentum in pseudopotentials (lmaxx) =  3
     [opt_tetra]  Optimized tetrahedron method is used.

     Subspace diagonalization in iterative solution of the eigenvalue problem:
     a serial algorithm will be used


     G-vector sticks info
     --------------------
     sticks:   dense  smooth     PW     G-vecs:    dense   smooth      PW
     Sum        1383     467    151                32565     6339    1157

     Using Slab Decomposition



     bravais-lattice index     =            3
     lattice parameter (alat)  =       5.3900  a.u.
     unit-cell volume          =      78.2954 (a.u.)^3
     number of atoms/cell      =            1
     number of atomic types    =            1
     number of electrons       =        16.00
     number of Kohn-Sham states=           12
     kinetic-energy cutoff     =      70.0000  Ry
     charge density cutoff     =     850.0000  Ry
     scf convergence threshold =      1.0E-08
     mixing beta               =       0.7000
     number of iterations used =            8  plain     mixing
     Exchange-correlation= PBE
                           (   1   4   3   4   0   0   0)

     celldm(1)=   5.390000  celldm(2)=   0.000000  celldm(3)=   0.000000
     celldm(4)=   0.000000  celldm(5)=   0.000000  celldm(6)=   0.000000

     crystal axes: (cart. coord. in units of alat)
               a(1) = (   0.500000   0.500000   0.500000 )  
               a(2) = (  -0.500000   0.500000   0.500000 )  
               a(3) = (  -0.500000  -0.500000   0.500000 )  

     reciprocal axes: (cart. coord. in units 2 pi/alat)
               b(1) = (  1.000000  0.000000  1.000000 )  
               b(2) = ( -1.000000  1.000000  0.000000 )  
               b(3) = (  0.000000 -1.000000  1.000000 )  


     PseudoPot. # 1 for Fe read from file:
     /home/pietro/repositories/materials-for-max-qe2021-online-school/pseudo/Fe.pbe-spn-rrkjus_psl.0.2.1.UPF
     MD5 check sum: f9af58635850a145d9bd408d58feeb93
     Pseudo is Ultrasoft + core correction, Zval = 16.0
     Generated using "atomic" code by A. Dal Corso  v.5.0.2 svn rev. 9415
     Using radial grid of 1191 points,  6 beta functions with: 
                l(1) =   0
                l(2) =   0
                l(3) =   1
                l(4) =   1
                l(5) =   2
                l(6) =   2
     Q(r) pseudized with 0 coefficients 


     atomic species   valence    mass     pseudopotential
        Fe            16.00    55.84500     Fe( 1.00)

     Starting magnetic structure 
     atomic species   magnetization
        Fe           0.700

     48 Sym. Ops., with inversion, found



   Cartesian axes

     site n.     atom                  positions (alat units)
         1           Fe  tau(   1) = (   0.0000000   0.0000000   0.0000000  )

     number of k points=   100 (tetrahedron method)

     Number of k-points >= 100: set verbosity='high' to print them.

     Dense  grid:    32565 G-vectors     FFT dimensions: (  45,  45,  45)

     Smooth grid:     6339 G-vectors     FFT dimensions: (  25,  25,  25)

     Estimated max dynamical RAM per process >      97.08 MB

     Estimated total dynamical RAM >     178.26 MB

     Check: negative core charge=   -0.000011
     Generating pointlists ...
     new r_m :   0.3572 (alat units)  1.9255 (a.u.) for type    1

     Initial potential from superposition of free atoms

     starting charge   15.99956, renormalised to   16.00000
     Starting wfcs are   13 randomized atomic wfcs

     total cpu time spent up to now is        1.3 secs

     Self-consistent Calculation

     iteration #  1     ecut=    70.00 Ry     beta= 0.70
     Davidson diagonalization with overlap
     ethr =  1.00E-02,  avg # of iterations =  3.2

     negative rho (up, down):  0.000E+00 6.017E-05

     total cpu time spent up to now is        4.6 secs

     total energy              =    -254.07751752 Ry
     estimated scf accuracy    <       1.49503797 Ry

     total magnetization       =     3.87 Bohr mag/cell
     absolute magnetization    =     3.90 Bohr mag/cell

     iteration #  2     ecut=    70.00 Ry     beta= 0.70
     Davidson diagonalization with overlap
     ethr =  9.34E-03,  avg # of iterations =  1.3

     negative rho (up, down):  0.000E+00 6.746E-05

     total cpu time spent up to now is        7.7 secs

     total energy              =    -254.26523863 Ry
     estimated scf accuracy    <       0.35073370 Ry

     total magnetization       =     3.05 Bohr mag/cell
     absolute magnetization    =     3.20 Bohr mag/cell

     iteration #  3     ecut=    70.00 Ry     beta= 0.70
     Davidson diagonalization with overlap
     ethr =  2.19E-03,  avg # of iterations =  2.0

     negative rho (up, down):  0.000E+00 7.103E-05

     total cpu time spent up to now is       10.9 secs

     total energy              =    -254.29507621 Ry
     estimated scf accuracy    <       0.43548693 Ry

     total magnetization       =     2.57 Bohr mag/cell
     absolute magnetization    =     2.71 Bohr mag/cell

     iteration #  4     ecut=    70.00 Ry     beta= 0.70
     Davidson diagonalization with overlap
     ethr =  2.19E-03,  avg # of iterations =  2.0

     negative rho (up, down):  0.000E+00 4.829E-05

     total cpu time spent up to now is       14.1 secs

     total energy              =    -254.36661457 Ry
     estimated scf accuracy    <       0.00192697 Ry

     total magnetization       =     2.33 Bohr mag/cell
     absolute magnetization    =     2.51 Bohr mag/cell

     iteration #  5     ecut=    70.00 Ry     beta= 0.70
     Davidson diagonalization with overlap
     ethr =  1.20E-05,  avg # of iterations =  5.4

     negative rho (up, down):  0.000E+00 4.503E-05

     total cpu time spent up to now is       18.1 secs

     total energy              =    -254.36936532 Ry
     estimated scf accuracy    <       0.00042519 Ry

     total magnetization       =     2.23 Bohr mag/cell
     absolute magnetization    =     2.38 Bohr mag/cell

     iteration #  6     ecut=    70.00 Ry     beta= 0.70
     Davidson diagonalization with overlap
     ethr =  2.66E-06,  avg # of iterations =  2.3

     negative rho (up, down):  0.000E+00 3.774E-05

     total cpu time spent up to now is       21.4 secs

     total energy              =    -254.36944554 Ry
     estimated scf accuracy    <       0.00012756 Ry

     total magnetization       =     2.22 Bohr mag/cell
     absolute magnetization    =     2.36 Bohr mag/cell

     iteration #  7     ecut=    70.00 Ry     beta= 0.70
     Davidson diagonalization with overlap
     ethr =  7.97E-07,  avg # of iterations =  2.0

     negative rho (up, down):  0.000E+00 4.095E-05

     total cpu time spent up to now is       24.6 secs

     total energy              =    -254.36955327 Ry
     estimated scf accuracy    <       0.00001394 Ry

     total magnetization       =     2.20 Bohr mag/cell
     absolute magnetization    =     2.33 Bohr mag/cell

     iteration #  8     ecut=    70.00 Ry     beta= 0.70
     Davidson diagonalization with overlap
     ethr =  8.71E-08,  avg # of iterations =  2.1

     negative rho (up, down):  0.000E+00 3.970E-05

     total cpu time spent up to now is       27.9 secs

     total energy              =    -254.36956591 Ry
     estimated scf accuracy    <       0.00000951 Ry

     total magnetization       =     2.21 Bohr mag/cell
     absolute magnetization    =     2.34 Bohr mag/cell

     iteration #  9     ecut=    70.00 Ry     beta= 0.70
     Davidson diagonalization with overlap
     ethr =  5.94E-08,  avg # of iterations =  1.5

     negative rho (up, down):  0.000E+00 3.968E-05

     Magnetic moment per site  (integrated on atomic sphere of radius R)
     atom   1 (R=0.357)  charge= 14.4086  magn=  2.2589

     total cpu time spent up to now is       31.0 secs

     End of self-consistent calculation

     Number of k-points >= 100: set verbosity='high' to print the bands.

     the Fermi energy is    17.7840 ev

!    total energy              =    -254.36957013 Ry
     estimated scf accuracy    <          7.1E-09 Ry

     The total energy is the sum of the following terms:
     one-electron contribution =    -112.77168500 Ry
     hartree contribution      =      66.06420924 Ry
     xc contribution           =     -34.81538509 Ry
     ewald contribution        =    -172.84670929 Ry

     total magnetization       =     2.20 Bohr mag/cell
     absolute magnetization    =     2.33 Bohr mag/cell

     convergence has been achieved in   9 iterations

     Writing output data file ./tempdir/fe54.save/

     init_run     :      1.08s CPU      1.11s WALL (       1 calls)
     electrons    :     29.36s CPU     29.70s WALL (       1 calls)

     Called by init_run:
     wfcinit      :      0.51s CPU      0.51s WALL (       1 calls)
     potinit      :      0.10s CPU      0.11s WALL (       1 calls)
     hinit0       :      0.39s CPU      0.40s WALL (       1 calls)

     Called by electrons:
     c_bands      :     10.38s CPU     10.48s WALL (       9 calls)
     sum_band     :     17.57s CPU     17.68s WALL (       9 calls)
     v_of_rho     :      0.84s CPU      0.88s WALL (      10 calls)
     newd         :      0.59s CPU      0.71s WALL (      10 calls)
     mix_rho      :      0.05s CPU      0.05s WALL (       9 calls)

     Called by c_bands:
     init_us_2    :      0.24s CPU      0.25s WALL (    1900 calls)
     cegterg      :      8.91s CPU      9.00s WALL (     900 calls)

     Called by *egterg:
     cdiaghg      :      0.30s CPU      0.30s WALL (    2969 calls)
     h_psi        :      8.33s CPU      8.41s WALL (    3069 calls)
     s_psi        :      0.11s CPU      0.11s WALL (    3069 calls)
     g_psi        :      0.04s CPU      0.04s WALL (    2069 calls)

     Called by h_psi:
     h_psi:calbec :      0.14s CPU      0.14s WALL (    3069 calls)
     vloc_psi     :      8.05s CPU      8.13s WALL (    3069 calls)
     add_vuspsi   :      0.11s CPU      0.11s WALL (    3069 calls)

     General routines
     calbec       :      0.19s CPU      0.19s WALL (    3969 calls)
     fft          :      0.34s CPU      0.34s WALL (     244 calls)
     ffts         :      0.01s CPU      0.01s WALL (      38 calls)
     fftw         :      8.91s CPU      9.01s WALL (   64438 calls)
     interpolate  :      0.04s CPU      0.04s WALL (      20 calls)

     Parallel routines

     PWSCF        :     30.67s CPU     31.06s WALL


   This run was terminated on:  11: 6:28  19Apr2021            

=------------------------------------------------------------------------------=
   JOB DONE.
=------------------------------------------------------------------------------=
