
     Program PWSCF v.6.7GPU starts on 19Apr2021 at 11: 4:40 

     This program is part of the open-source Quantum ESPRESSO suite
     for quantum simulation of materials; please cite
         "P. Giannozzi et al., J. Phys.:Condens. Matter 21 395502 (2009);
         "P. Giannozzi et al., J. Phys.:Condens. Matter 29 465901 (2017);
         "P. Giannozzi et al., J. Chem. Phys. 152 154105 (2020);
          URL http://www.quantum-espresso.org", 
     in publications or presentations arising from this work. More details at
     http://www.quantum-espresso.org/quote

     Parallel version (MPI & OpenMP), running on       2 processor cores
     Number of MPI processes:                 2
     Threads/MPI process:                     1

     MPI processes distributed on     1 nodes
     K-points division:     npool     =       2
     Waiting for input...
     Reading input from standard input

     Current dimensions of program PWSCF are:
     Max number of different atomic species (ntypx) = 10
     Max number of k-points (npk) =  40000
     Max angular momentum in pseudopotentials (lmaxx) =  3

     Subspace diagonalization in iterative solution of the eigenvalue problem:
     a serial algorithm will be used


     G-vector sticks info
     --------------------
     sticks:   dense  smooth     PW     G-vecs:    dense   smooth      PW
     Sum        1383     467    139                32565     6339    1061

     Using Slab Decomposition



     bravais-lattice index     =            3
     lattice parameter (alat)  =       5.3900  a.u.
     unit-cell volume          =      78.2954 (a.u.)^3
     number of atoms/cell      =            1
     number of atomic types    =            1
     number of electrons       =        16.00
     number of Kohn-Sham states=           12
     kinetic-energy cutoff     =      70.0000  Ry
     charge density cutoff     =     850.0000  Ry
     scf convergence threshold =      1.0E-08
     mixing beta               =       0.7000
     number of iterations used =            8  plain     mixing
     Exchange-correlation= PBE
                           (   1   4   3   4   0   0   0)

     celldm(1)=   5.390000  celldm(2)=   0.000000  celldm(3)=   0.000000
     celldm(4)=   0.000000  celldm(5)=   0.000000  celldm(6)=   0.000000

     crystal axes: (cart. coord. in units of alat)
               a(1) = (   0.500000   0.500000   0.500000 )  
               a(2) = (  -0.500000   0.500000   0.500000 )  
               a(3) = (  -0.500000  -0.500000   0.500000 )  

     reciprocal axes: (cart. coord. in units 2 pi/alat)
               b(1) = (  1.000000  0.000000  1.000000 )  
               b(2) = ( -1.000000  1.000000  0.000000 )  
               b(3) = (  0.000000 -1.000000  1.000000 )  


     PseudoPot. # 1 for Fe read from file:
     /home/pietro/repositories/materials-for-max-qe2021-online-school/pseudo/Fe.pbe-spn-rrkjus_psl.0.2.1.UPF
     MD5 check sum: f9af58635850a145d9bd408d58feeb93
     Pseudo is Ultrasoft + core correction, Zval = 16.0
     Generated using "atomic" code by A. Dal Corso  v.5.0.2 svn rev. 9415
     Using radial grid of 1191 points,  6 beta functions with: 
                l(1) =   0
                l(2) =   0
                l(3) =   1
                l(4) =   1
                l(5) =   2
                l(6) =   2
     Q(r) pseudized with 0 coefficients 


     atomic species   valence    mass     pseudopotential
        Fe            16.00    55.84500     Fe( 1.00)

     Starting magnetic structure 
     atomic species   magnetization
        Fe           0.700

     48 Sym. Ops., with inversion, found



   Cartesian axes

     site n.     atom                  positions (alat units)
         1           Fe  tau(   1) = (   0.0000000   0.0000000   0.0000000  )

     number of k points=    44  Marzari-Vanderbilt smearing, width (Ry)=  0.0200
                       cart. coord. in units 2pi/alat
        k(    1) = (   0.0000000   0.0000000   0.1000000), wk =   0.0060000
        k(    2) = (   0.0000000  -0.1000000   0.2000000), wk =   0.0240000
        k(    3) = (   0.0000000  -0.2000000   0.3000000), wk =   0.0240000
        k(    4) = (   0.0000000  -0.3000000   0.4000000), wk =   0.0240000
        k(    5) = (   0.0000000  -0.4000000   0.5000000), wk =   0.0240000
        k(    6) = (  -0.1000000   0.1000000   0.1000000), wk =   0.0080000
        k(    7) = (  -0.1000000  -0.1000000   0.3000000), wk =   0.0240000
        k(    8) = (  -0.1000000  -0.2000000   0.4000000), wk =   0.0480000
        k(    9) = (  -0.1000000  -0.3000000   0.5000000), wk =   0.0480000
        k(   10) = (  -0.1000000   0.6000000  -0.4000000), wk =   0.0240000
        k(   11) = (  -0.2000000   0.2000000   0.1000000), wk =   0.0240000
        k(   12) = (  -0.2000000  -0.2000000   0.5000000), wk =   0.0240000
        k(   13) = (  -0.2000000   0.7000000  -0.4000000), wk =   0.0480000
        k(   14) = (  -0.3000000   0.3000000   0.1000000), wk =   0.0240000
        k(   15) = (  -0.3000000   0.2000000   0.2000000), wk =   0.0240000
        k(   16) = (  -0.3000000   0.7000000  -0.3000000), wk =   0.0080000
        k(   17) = (  -0.4000000   0.4000000   0.1000000), wk =   0.0240000
        k(   18) = (  -0.4000000   0.3000000   0.2000000), wk =   0.0480000
        k(   19) = (   0.5000000  -0.5000000   0.1000000), wk =   0.0120000
        k(   20) = (   0.5000000  -0.6000000   0.2000000), wk =   0.0480000
        k(   21) = (   0.5000000  -0.7000000   0.3000000), wk =   0.0240000
        k(   22) = (   0.4000000  -0.6000000   0.3000000), wk =   0.0240000
        k(   23) = (   0.0000000   0.0000000   0.3000000), wk =   0.0060000
        k(   24) = (   0.0000000  -0.1000000   0.4000000), wk =   0.0240000
        k(   25) = (   0.0000000  -0.2000000   0.5000000), wk =   0.0240000
        k(   26) = (   0.0000000  -0.3000000   0.6000000), wk =   0.0240000
        k(   27) = (  -0.1000000  -0.1000000   0.5000000), wk =   0.0240000
        k(   28) = (  -0.1000000  -0.2000000   0.6000000), wk =   0.0480000
        k(   29) = (  -0.1000000   0.7000000  -0.3000000), wk =   0.0240000
        k(   30) = (  -0.2000000   0.8000000  -0.3000000), wk =   0.0240000
        k(   31) = (  -0.3000000   0.3000000   0.3000000), wk =   0.0080000
        k(   32) = (   0.6000000  -0.6000000   0.3000000), wk =   0.0240000
        k(   33) = (   0.5000000  -0.5000000   0.3000000), wk =   0.0120000
        k(   34) = (   0.5000000  -0.6000000   0.4000000), wk =   0.0240000
        k(   35) = (   0.0000000   0.0000000   0.5000000), wk =   0.0060000
        k(   36) = (   0.0000000  -0.1000000   0.6000000), wk =   0.0240000
        k(   37) = (   0.0000000  -0.2000000   0.7000000), wk =   0.0240000
        k(   38) = (  -0.1000000  -0.1000000   0.7000000), wk =   0.0240000
        k(   39) = (  -0.1000000   0.8000000  -0.2000000), wk =   0.0240000
        k(   40) = (   0.5000000  -0.5000000   0.5000000), wk =   0.0020000
        k(   41) = (   0.0000000   0.0000000   0.7000000), wk =   0.0060000
        k(   42) = (   0.0000000  -0.1000000   0.8000000), wk =   0.0240000
        k(   43) = (  -0.1000000   0.9000000  -0.1000000), wk =   0.0080000
        k(   44) = (   0.0000000   0.0000000   0.9000000), wk =   0.0060000

     Dense  grid:    32565 G-vectors     FFT dimensions: (  45,  45,  45)

     Smooth grid:     6339 G-vectors     FFT dimensions: (  25,  25,  25)

     Estimated max dynamical RAM per process >      89.14 MB

     Estimated total dynamical RAM >     162.39 MB

     Check: negative core charge=   -0.000011
     Generating pointlists ...
     new r_m :   0.3572 (alat units)  1.9255 (a.u.) for type    1

     Initial potential from superposition of free atoms

     starting charge   15.99956, renormalised to   16.00000
     Starting wfcs are   13 randomized atomic wfcs

     total cpu time spent up to now is        0.9 secs

     Self-consistent Calculation

     iteration #  1     ecut=    70.00 Ry     beta= 0.70
     Davidson diagonalization with overlap
     ethr =  1.00E-02,  avg # of iterations =  3.1

     negative rho (up, down):  0.000E+00 6.020E-05

     total cpu time spent up to now is        1.8 secs

     total energy              =    -254.07972973 Ry
     estimated scf accuracy    <       1.49592819 Ry

     total magnetization       =     3.86 Bohr mag/cell
     absolute magnetization    =     3.89 Bohr mag/cell

     iteration #  2     ecut=    70.00 Ry     beta= 0.70
     Davidson diagonalization with overlap
     ethr =  9.35E-03,  avg # of iterations =  1.3

     negative rho (up, down):  0.000E+00 6.702E-05

     total cpu time spent up to now is        2.6 secs

     total energy              =    -254.26716614 Ry
     estimated scf accuracy    <       0.35366903 Ry

     total magnetization       =     3.03 Bohr mag/cell
     absolute magnetization    =     3.19 Bohr mag/cell

     iteration #  3     ecut=    70.00 Ry     beta= 0.70
     Davidson diagonalization with overlap
     ethr =  2.21E-03,  avg # of iterations =  2.0

     negative rho (up, down):  0.000E+00 7.033E-05

     total cpu time spent up to now is        3.4 secs

     total energy              =    -254.29364319 Ry
     estimated scf accuracy    <       0.45235340 Ry

     total magnetization       =     2.53 Bohr mag/cell
     absolute magnetization    =     2.68 Bohr mag/cell

     iteration #  4     ecut=    70.00 Ry     beta= 0.70
     Davidson diagonalization with overlap
     ethr =  2.21E-03,  avg # of iterations =  2.0

     negative rho (up, down):  0.000E+00 4.945E-05

     total cpu time spent up to now is        4.2 secs

     total energy              =    -254.36727464 Ry
     estimated scf accuracy    <       0.00153815 Ry

     total magnetization       =     2.34 Bohr mag/cell
     absolute magnetization    =     2.51 Bohr mag/cell

     iteration #  5     ecut=    70.00 Ry     beta= 0.70
     Davidson diagonalization with overlap
     ethr =  9.61E-06,  avg # of iterations =  5.8

     negative rho (up, down):  0.000E+00 4.659E-05

     total cpu time spent up to now is        5.4 secs

     total energy              =    -254.36956915 Ry
     estimated scf accuracy    <       0.00047118 Ry

     total magnetization       =     2.28 Bohr mag/cell
     absolute magnetization    =     2.41 Bohr mag/cell

     iteration #  6     ecut=    70.00 Ry     beta= 0.70
     Davidson diagonalization with overlap
     ethr =  2.94E-06,  avg # of iterations =  1.7

     negative rho (up, down):  0.000E+00 4.037E-05

     total cpu time spent up to now is        6.3 secs

     total energy              =    -254.36966098 Ry
     estimated scf accuracy    <       0.00006936 Ry

     total magnetization       =     2.27 Bohr mag/cell
     absolute magnetization    =     2.40 Bohr mag/cell

     iteration #  7     ecut=    70.00 Ry     beta= 0.70
     Davidson diagonalization with overlap
     ethr =  4.33E-07,  avg # of iterations =  2.7

     negative rho (up, down):  0.000E+00 4.250E-05

     total cpu time spent up to now is        7.2 secs

     total energy              =    -254.36972784 Ry
     estimated scf accuracy    <       0.00000580 Ry

     total magnetization       =     2.25 Bohr mag/cell
     absolute magnetization    =     2.37 Bohr mag/cell

     iteration #  8     ecut=    70.00 Ry     beta= 0.70
     Davidson diagonalization with overlap
     ethr =  3.62E-08,  avg # of iterations =  2.3

     negative rho (up, down):  0.000E+00 4.172E-05

     total cpu time spent up to now is        8.0 secs

     total energy              =    -254.36973035 Ry
     estimated scf accuracy    <       0.00000675 Ry

     total magnetization       =     2.26 Bohr mag/cell
     absolute magnetization    =     2.38 Bohr mag/cell

     iteration #  9     ecut=    70.00 Ry     beta= 0.70
     Davidson diagonalization with overlap
     ethr =  3.62E-08,  avg # of iterations =  1.5

     negative rho (up, down):  0.000E+00 4.167E-05

     total cpu time spent up to now is        8.8 secs

     total energy              =    -254.36973190 Ry
     estimated scf accuracy    <       0.00000002 Ry

     total magnetization       =     2.25 Bohr mag/cell
     absolute magnetization    =     2.37 Bohr mag/cell

     iteration # 10     ecut=    70.00 Ry     beta= 0.70
     Davidson diagonalization with overlap
     ethr =  9.38E-11,  avg # of iterations =  6.0

     negative rho (up, down):  0.000E+00 4.162E-05

     Magnetic moment per site  (integrated on atomic sphere of radius R)
     atom   1 (R=0.357)  charge= 14.4110  magn=  2.3030

     total cpu time spent up to now is       10.1 secs

     End of self-consistent calculation

 ------ SPIN UP ------------


          k = 0.0000 0.0000 0.1000 (   775 PWs)   bands (ev):

   -70.3344 -36.1647 -36.1583 -36.1583   9.5968  15.5277  15.5277  15.5843
    16.6240  16.7494  41.2615  42.2719

          k = 0.0000-0.1000 0.2000 (   768 PWs)   bands (ev):

   -70.3214 -36.2321 -36.1818 -36.1600  10.3801  15.3461  15.4891  15.9853
    16.4315  16.8102  37.9684  40.6475

          k = 0.0000-0.2000 0.3000 (   775 PWs)   bands (ev):

   -70.3005 -36.3450 -36.2203 -36.1594  11.7163  15.0353  15.3669  16.4458
    16.7134  16.8834  33.3885  38.5197

          k = 0.0000-0.3000 0.4000 (   778 PWs)   bands (ev):

   -70.2795 -36.4558 -36.2585 -36.1591  12.7922  14.7363  15.7876  16.6921
    17.1175  17.5224  28.9468  36.8470

          k = 0.0000-0.4000 0.5000 (   781 PWs)   bands (ev):

   -70.2665 -36.5237 -36.2822 -36.1589  13.0006  14.5571  16.4220  16.7463
    18.0750  18.3479  25.5438  35.9388

          k =-0.1000 0.1000 0.1000 (   758 PWs)   bands (ev):

   -70.3277 -36.2106 -36.1581 -36.1581   9.9956  15.4024  15.4024  15.9081
    16.6604  16.6604  39.9075  39.9075

          k =-0.1000-0.1000 0.3000 (   765 PWs)   bands (ev):

   -70.3046 -36.3091 -36.2076 -36.1760  11.4389  15.2631  15.2745  16.2545
    16.5327  16.9540  35.5792  36.8046

          k =-0.1000-0.2000 0.4000 (   776 PWs)   bands (ev):

   -70.2840 -36.4076 -36.2520 -36.1806  12.7297  14.9084  15.2136  16.3948
    17.0359  17.5767  31.4146  34.5486

          k =-0.1000-0.3000 0.5000 (   774 PWs)   bands (ev):

   -70.2672 -36.4860 -36.2907 -36.1807  13.2842  14.7257  15.5349  16.6261
    17.4193  18.9876  27.2768  33.3176

          k =-0.1000 0.6000-0.4000 (   772 PWs)   bands (ev):

   -70.2607 -36.5154 -36.3057 -36.1807  13.3001  14.6648  15.7724  16.6524
    17.7282  20.2767  25.0163  32.8723

          k =-0.2000 0.2000 0.1000 (   770 PWs)   bands (ev):

   -70.3106 -36.3034 -36.1897 -36.1591  11.1022  15.1079  15.2472  16.5510
    16.5793  16.7347  35.7153  38.0133

          k =-0.2000-0.2000 0.5000 (   773 PWs)   bands (ev):

   -70.2675 -36.4562 -36.3044 -36.1943  13.6346  14.5541  15.2153  16.5233
    17.1904  19.2287  29.6057  30.3692

          k =-0.2000 0.7000-0.4000 (   773 PWs)   bands (ev):

   -70.2572 -36.4759 -36.3515 -36.1983  13.8665  14.6023  15.1086  16.7404
    17.3502  21.5321  26.0972  29.2270

          k =-0.3000 0.3000 0.1000 (   783 PWs)   bands (ev):

   -70.2894 -36.4103 -36.2351 -36.1604  12.4669  14.7834  15.3002  16.6365
    16.8121  17.4804  31.1452  36.3189

          k =-0.3000 0.2000 0.2000 (   776 PWs)   bands (ev):

   -70.2931 -36.3886 -36.2134 -36.1770  12.3575  14.8726  14.9103  16.5894
    16.8245  17.5339  33.4425  34.3187

          k =-0.3000 0.7000-0.3000 (   772 PWs)   bands (ev):

   -70.2534 -36.4244 -36.4244 -36.2029  14.3422  14.5989  14.5989  17.0810
    17.0810  24.4651  24.4651  26.9761

          k =-0.4000 0.4000 0.1000 (   784 PWs)   bands (ev):

   -70.2722 -36.4942 -36.2728 -36.1610  13.0514  14.5407  16.3202  16.7865
    16.8752  18.5821  27.0642  35.1545

          k =-0.4000 0.3000 0.2000 (   775 PWs)   bands (ev):

   -70.2756 -36.4557 -36.2641 -36.1843  13.3988  14.5973  15.1146  16.6914
    16.9254  18.8845  29.3930  32.5009

          k = 0.5000-0.5000 0.1000 (   774 PWs)   bands (ev):

   -70.2655 -36.5253 -36.2868 -36.1609  13.0817  14.4516  16.7951  16.9007
    17.0980  19.5039  24.9562  34.7404

          k = 0.5000-0.6000 0.2000 (   777 PWs)   bands (ev):

   -70.2648 -36.4907 -36.3039 -36.1870  13.5185  14.4685  15.8352  16.8040
    17.0272  20.6362  25.8115  31.6827

          k = 0.5000-0.7000 0.3000 (   773 PWs)   bands (ev):

   -70.2645 -36.4613 -36.3209 -36.2020  13.9642  14.5093  15.0944  16.7940
    17.0138  20.9969  27.7954  28.7604

          k = 0.4000-0.6000 0.3000 (   770 PWs)   bands (ev):

   -70.2603 -36.4455 -36.3624 -36.2067  14.0166  14.5554  15.1544  16.8853
    17.0246  23.0881  25.2701  28.0462

          k = 0.0000 0.0000 0.3000 (   763 PWs)   bands (ev):

   -70.3090 -36.2486 -36.2057 -36.2057  11.1113  15.5876  15.5876  15.9505
    16.0003  17.0180  37.5281  39.1397

          k = 0.0000-0.1000 0.4000 (   770 PWs)   bands (ev):

   -70.2891 -36.3400 -36.2454 -36.2148  12.3218  15.2494  15.4391  16.0162
    16.6276  17.2916  33.9443  37.0127

          k = 0.0000-0.2000 0.5000 (   776 PWs)   bands (ev):

   -70.2691 -36.4420 -36.2848 -36.2123  13.2632  14.9787  15.1948  16.3902
    17.4490  18.1705  29.4630  35.2555

          k = 0.0000-0.3000 0.6000 (   777 PWs)   bands (ev):

   -70.2567 -36.5051 -36.3089 -36.2099  13.4007  15.0420  15.1694  16.4568
    18.0229  20.0727  25.8082  34.2113

          k =-0.1000-0.1000 0.5000 (   778 PWs)   bands (ev):

   -70.2699 -36.4055 -36.2913 -36.2355  13.3070  14.7259  15.5617  16.1650
    17.1224  18.1656  31.9671  32.6214

          k =-0.1000-0.2000 0.6000 (   777 PWs)   bands (ev):

   -70.2543 -36.4659 -36.3349 -36.2368  13.7547  14.4916  15.3667  16.4946
    17.5954  20.1537  27.9488  31.0851

          k =-0.1000 0.7000-0.3000 (   782 PWs)   bands (ev):

   -70.2483 -36.4900 -36.3520 -36.2361  13.7148  14.6471  15.1892  16.5823
    17.8549  22.0930  25.2679  30.6077

          k =-0.2000 0.8000-0.3000 (   769 PWs)   bands (ev):

   -70.2450 -36.4576 -36.3979 -36.2417  14.1387  14.1813  15.1070  16.9904
    17.5035  22.9705  26.4646  27.7002

          k =-0.3000 0.3000 0.3000 (   784 PWs)   bands (ev):

   -70.2789 -36.4430 -36.2210 -36.2210  13.5983  14.5920  14.5920  16.7990
    16.7990  18.9073  31.8043  31.8043

          k = 0.6000-0.6000 0.3000 (   779 PWs)   bands (ev):

   -70.2673 -36.4586 -36.2839 -36.2267  14.0549  14.4373  15.0166  16.8546
    16.8952  20.8076  27.9503  30.7742

          k = 0.5000-0.5000 0.3000 (   782 PWs)   bands (ev):

   -70.2629 -36.4537 -36.3195 -36.2287  13.9719  14.3900  15.4640  16.8904
    16.9201  22.5886  25.3433  30.4220

          k = 0.5000-0.6000 0.4000 (   771 PWs)   bands (ev):

   -70.2621 -36.4168 -36.3341 -36.2575  14.2712  14.5680  14.9284  16.9115
    16.9325  23.3830  26.6522  27.7693

          k = 0.0000 0.0000 0.5000 (   771 PWs)   bands (ev):

   -70.2707 -36.3505 -36.2862 -36.2862  13.1665  14.8562  15.9628  15.9628
    16.6876  17.9619  34.5629  34.5629

          k = 0.0000-0.1000 0.6000 (   772 PWs)   bands (ev):

   -70.2524 -36.4207 -36.3269 -36.2967  13.6738  14.3082  16.0007  16.3290
    17.3470  19.4599  30.4132  32.6298

          k = 0.0000-0.2000 0.7000 (   771 PWs)   bands (ev):

   -70.2410 -36.4747 -36.3520 -36.2919  13.6732  14.1563  15.9192  16.4876
    17.9393  21.9684  26.4724  31.4993

          k =-0.1000-0.1000 0.7000 (   767 PWs)   bands (ev):

   -70.2382 -36.4468 -36.3769 -36.3104  13.7635  13.8656  16.0727  16.8596
    17.6584  21.7744  28.8147  29.3016

          k =-0.1000 0.8000-0.2000 (   774 PWs)   bands (ev):

   -70.2328 -36.4579 -36.4018 -36.3097  13.6626  13.8072  16.0182  17.1276
    17.8135  24.3097  25.8788  28.5851

          k = 0.5000-0.5000 0.5000 (   784 PWs)   bands (ev):

   -70.2613 -36.3398 -36.3398 -36.3398  14.6122  14.6122  14.6122  16.9321
    16.9321  26.2602  26.2602  26.2603

          k = 0.0000 0.0000 0.7000 (   771 PWs)   bands (ev):

   -70.2356 -36.4107 -36.3691 -36.3691  13.5924  13.7783  16.8007  16.8007
    17.3921  21.3111  30.5243  30.5243

          k = 0.0000-0.1000 0.8000 (   776 PWs)   bands (ev):

   -70.2252 -36.4446 -36.3951 -36.3737  13.4202  13.4712  16.9663  17.1544
    17.8575  23.9752  27.5328  29.2703

          k =-0.1000 0.9000-0.1000 (   784 PWs)   bands (ev):

   -70.2203 -36.4319 -36.4319 -36.3804  13.2977  13.2977  17.0669  17.7534
    17.7534  26.5839  26.5839  27.3814

          k = 0.0000 0.0000 0.9000 (   772 PWs)   bands (ev):

   -70.2154 -36.4272 -36.4218 -36.4218  13.1276  13.1287  17.7280  17.7280
    17.8356  26.1856  27.9078  27.9078

 ------ SPIN DOWN ----------


          k = 0.0000 0.0000 0.1000 (   775 PWs)   bands (ev):

   -67.4909 -33.3539 -33.3465 -33.3465   9.7665  17.5081  17.5081  17.5789
    19.4306  19.5952  41.1503  42.1115

          k = 0.0000-0.1000 0.2000 (   768 PWs)   bands (ev):

   -67.4766 -33.4299 -33.3726 -33.3485  10.5609  17.2863  17.4402  18.0186
    19.1529  19.6656  38.2748  40.7263

          k = 0.0000-0.2000 0.3000 (   775 PWs)   bands (ev):

   -67.4535 -33.5567 -33.4152 -33.3479  11.9840  16.9118  17.2062  18.8270
    19.0433  19.7387  34.0509  38.6447

          k = 0.0000-0.3000 0.4000 (   778 PWs)   bands (ev):

   -67.4303 -33.6810 -33.4575 -33.3478  13.5197  16.5553  17.1837  19.1928
    19.7407  19.8470  29.8961  36.9474

          k = 0.0000-0.4000 0.5000 (   781 PWs)   bands (ev):

   -67.4160 -33.7571 -33.4837 -33.3477  14.2611  16.3434  17.8528  19.3186
    20.1075  20.3771  26.8617  36.0073

          k =-0.1000 0.1000 0.1000 (   758 PWs)   bands (ev):

   -67.4837 -33.4056 -33.3464 -33.3464  10.1692  17.3595  17.3595  17.9293
    19.4713  19.4713  40.0287  40.0287

          k =-0.1000-0.1000 0.3000 (   765 PWs)   bands (ev):

   -67.4582 -33.5163 -33.4014 -33.3665  11.6636  17.1596  17.2041  18.6040
    18.8450  19.8107  36.0754  37.2989

          k =-0.1000-0.2000 0.4000 (   776 PWs)   bands (ev):

   -67.4353 -33.6268 -33.4508 -33.3716  13.1903  16.7741  16.9668  18.8706
    19.4867  20.0069  32.1899  35.0929

          k =-0.1000-0.3000 0.5000 (   774 PWs)   bands (ev):

   -67.4168 -33.7146 -33.4937 -33.3719  14.3883  16.5150  17.0263  19.1081
    19.9109  20.8712  28.3421  33.8648

          k =-0.1000 0.6000-0.4000 (   772 PWs)   bands (ev):

   -67.4097 -33.7477 -33.5102 -33.3719  14.6826  16.4409  17.2961  19.1857
    20.0967  21.6759  26.3842  33.4104

          k =-0.2000 0.2000 0.1000 (   770 PWs)   bands (ev):

   -67.4647 -33.5099 -33.3815 -33.3475  11.3062  17.0038  17.1491  18.6347
    19.2876  19.5640  36.2021  38.2770

          k =-0.2000-0.2000 0.5000 (   773 PWs)   bands (ev):

   -67.4171 -33.6810 -33.5097 -33.3867  14.5320  16.3644  16.8632  18.9672
    19.7837  21.1336  30.4881  31.0885

          k =-0.2000 0.7000-0.4000 (   773 PWs)   bands (ev):

   -67.4059 -33.7029 -33.5625 -33.3911  15.2856  16.3082  16.6998  19.2063
    19.8229  22.9486  27.2120  29.9919

          k =-0.3000 0.3000 0.1000 (   783 PWs)   bands (ev):

   -67.4413 -33.6299 -33.4318 -33.3491  12.8862  16.6095  16.9391  19.2855
    19.5831  19.6729  31.9283  36.5906

          k =-0.3000 0.2000 0.2000 (   776 PWs)   bands (ev):

   -67.4454 -33.6052 -33.4082 -33.3675  12.6554  16.7097  16.7121  19.2851
    19.5733  19.6877  34.0409  34.8693

          k =-0.3000 0.7000-0.3000 (   772 PWs)   bands (ev):

   -67.4017 -33.6448 -33.6448 -33.3961  15.9467  16.2186  16.2186  19.5382
    19.5382  25.6021  25.6021  27.9130

          k =-0.4000 0.4000 0.1000 (   784 PWs)   bands (ev):

   -67.4222 -33.7240 -33.4735 -33.3499  14.1060  16.3160  17.3356  19.3922
    19.7687  20.5362  28.1637  35.3863

          k =-0.4000 0.3000 0.2000 (   775 PWs)   bands (ev):

   -67.4261 -33.6806 -33.4647 -33.3759  14.1464  16.3474  16.6002  19.3577
    19.7657  20.8114  30.2455  33.0913

          k = 0.5000-0.5000 0.1000 (   774 PWs)   bands (ev):

   -67.4149 -33.7590 -33.4891 -33.3500  14.4007  16.2086  17.9513  19.4388
    19.8088  21.0633  26.3651  34.9507

          k = 0.5000-0.6000 0.2000 (   777 PWs)   bands (ev):

   -67.4141 -33.7199 -33.5089 -33.3789  14.8268  16.1770  17.0480  19.4709
    19.8239  22.1081  27.0005  32.2637

          k = 0.5000-0.7000 0.3000 (   773 PWs)   bands (ev):

   -67.4138 -33.6868 -33.5288 -33.3956  15.2223  16.1335  16.4812  19.4699
    19.7988  22.5486  28.7138  29.5444

          k = 0.4000-0.6000 0.3000 (   770 PWs)   bands (ev):

   -67.4091 -33.6690 -33.5754 -33.4009  15.4967  16.1396  16.5376  19.5783
    19.7603  24.2567  26.4212  28.8638

          k = 0.0000 0.0000 0.3000 (   763 PWs)   bands (ev):

   -67.4631 -33.4491 -33.3992 -33.3992  11.3152  17.5241  17.5241  18.0423
    18.5447  19.8881  37.7997  39.6404

          k = 0.0000-0.1000 0.4000 (   770 PWs)   bands (ev):

   -67.4411 -33.5512 -33.4432 -33.4098  12.6501  17.3065  17.3407  18.2955
    18.7306  20.0644  34.6039  37.6401

          k = 0.0000-0.2000 0.5000 (   776 PWs)   bands (ev):

   -67.4190 -33.6653 -33.4868 -33.4070  14.0800  16.8302  17.0509  18.6605
    19.6554  20.4524  30.3679  35.8995

          k = 0.0000-0.3000 0.6000 (   777 PWs)   bands (ev):

   -67.4053 -33.7357 -33.5136 -33.4044  14.7925  16.8303  16.8702  18.8319
    20.3176  21.5490  27.0312  34.8200

          k =-0.1000-0.1000 0.5000 (   778 PWs)   bands (ev):

   -67.4198 -33.6243 -33.4945 -33.4326  13.9632  16.7785  17.4192  18.3304
    19.3635  20.4872  32.7639  33.2807

          k =-0.1000-0.2000 0.6000 (   777 PWs)   bands (ev):

   -67.4026 -33.6916 -33.5432 -33.4340  15.0240  16.3230  17.2138  18.7193
    19.8920  21.8079  28.9153  31.7953

          k =-0.1000 0.7000-0.3000 (   782 PWs)   bands (ev):

   -67.3961 -33.7183 -33.5623 -33.4332  15.3158  16.3418  17.0193  18.8414
    20.1518  23.2991  26.4971  31.3033

          k =-0.2000 0.8000-0.3000 (   769 PWs)   bands (ev):

   -67.3925 -33.6817 -33.6143 -33.4391  15.7828  15.9573  16.8798  19.2224
    19.7888  24.2140  27.4953  28.5316

          k =-0.3000 0.3000 0.3000 (   784 PWs)   bands (ev):

   -67.4296 -33.6661 -33.4168 -33.4168  14.0733  16.3200  16.3200  19.6051
    19.6051  20.8469  32.4394  32.4394

          k = 0.6000-0.6000 0.3000 (   779 PWs)   bands (ev):

   -67.4169 -33.6838 -33.4874 -33.4234  15.2058  16.0884  16.3175  19.6425
    19.7808  22.3935  28.8388  31.4139

          k = 0.5000-0.5000 0.3000 (   782 PWs)   bands (ev):

   -67.4120 -33.6785 -33.5270 -33.4258  15.3627  16.0133  16.6947  19.6737
    19.8350  23.7540  26.5303  31.0594

          k = 0.5000-0.6000 0.4000 (   771 PWs)   bands (ev):

   -67.4111 -33.6369 -33.5441 -33.4581  15.7550  16.0578  16.2404  19.7615
    19.8232  24.5734  27.5759  28.6032

          k = 0.0000 0.0000 0.5000 (   771 PWs)   bands (ev):

   -67.4209 -33.5635 -33.4886 -33.4886  13.7480  17.1391  17.8842  17.8842
    18.8121  20.4209  35.2250  35.2250

          k = 0.0000-0.1000 0.6000 (   772 PWs)   bands (ev):

   -67.4006 -33.6410 -33.5339 -33.5009  14.7912  16.3766  17.9287  18.3590
    19.5414  21.2670  31.2118  33.2646

          k = 0.0000-0.2000 0.7000 (   771 PWs)   bands (ev):

   -67.3881 -33.7008 -33.5618 -33.4957  15.3346  15.9543  17.8378  18.5731
    20.2224  23.1876  27.4871  32.0788

          k =-0.1000-0.1000 0.7000 (   767 PWs)   bands (ev):

   -67.3851 -33.6695 -33.5901 -33.5159  15.3194  15.8293  17.9927  18.9328
    19.9002  23.0433  29.6473  29.9823

          k =-0.1000 0.8000-0.2000 (   774 PWs)   bands (ev):

   -67.3791 -33.6813 -33.6179 -33.5150  15.5054  15.6039  17.8966  19.2551
    20.0713  25.2777  26.8434  29.2804

          k = 0.5000-0.5000 0.5000 (   784 PWs)   bands (ev):

   -67.4102 -33.5505 -33.5505 -33.5505  16.0486  16.0486  16.0486  19.8513
    19.8513  27.1823  27.1823  27.1823

          k = 0.0000 0.0000 0.7000 (   771 PWs)   bands (ev):

   -67.3822 -33.6295 -33.5809 -33.5809  15.1243  15.7986  18.8127  18.8127
    19.6064  22.5679  31.0981  31.0981

          k = 0.0000-0.1000 0.8000 (   776 PWs)   bands (ev):

   -67.3708 -33.6661 -33.6100 -33.5865  15.2122  15.3651  19.0326  19.2273
    20.1298  24.8511  28.2139  29.7557

          k =-0.1000 0.9000-0.1000 (   784 PWs)   bands (ev):

   -67.3654 -33.6513 -33.6513 -33.5936  15.1574  15.1574  19.1306  19.9870
    19.9870  27.2242  27.2242  27.9248

          k = 0.0000 0.0000 0.9000 (   772 PWs)   bands (ev):

   -67.3601 -33.6462 -33.6397 -33.6397  14.9724  15.0092  19.9530  19.9530
    20.1091  26.6990  28.2579  28.2579

     the Fermi energy is    17.8012 ev

!    total energy              =    -254.36973197 Ry
     estimated scf accuracy    <          5.9E-09 Ry
     smearing contrib. (-TS)   =       0.00082479 Ry
     internal energy E=F+TS    =    -254.37055676 Ry

     The total energy is F=E-TS. E is the sum of the following terms:
     one-electron contribution =    -112.79432794 Ry
     hartree contribution      =      66.09309776 Ry
     xc contribution           =     -34.82261728 Ry
     ewald contribution        =    -172.84670929 Ry

     total magnetization       =     2.25 Bohr mag/cell
     absolute magnetization    =     2.37 Bohr mag/cell

     convergence has been achieved in  10 iterations

     Writing output data file ./tempdir/fe54.save/

     init_run     :      0.80s CPU      0.84s WALL (       1 calls)
     electrons    :      8.81s CPU      9.16s WALL (       1 calls)

     Called by init_run:
     wfcinit      :      0.23s CPU      0.24s WALL (       1 calls)
     potinit      :      0.10s CPU      0.11s WALL (       1 calls)
     hinit0       :      0.39s CPU      0.40s WALL (       1 calls)

     Called by electrons:
     c_bands      :      5.37s CPU      5.42s WALL (      10 calls)
     sum_band     :      1.94s CPU      2.05s WALL (      10 calls)
     v_of_rho     :      0.87s CPU      0.92s WALL (      11 calls)
     newd         :      0.66s CPU      0.80s WALL (      11 calls)
     mix_rho      :      0.06s CPU      0.06s WALL (      10 calls)

     Called by c_bands:
     init_us_2    :      0.12s CPU      0.12s WALL (     924 calls)
     cegterg      :      4.69s CPU      4.74s WALL (     440 calls)

     Called by *egterg:
     cdiaghg      :      0.17s CPU      0.18s WALL (    1662 calls)
     h_psi        :      4.29s CPU      4.34s WALL (    1706 calls)
     s_psi        :      0.06s CPU      0.06s WALL (    1706 calls)
     g_psi        :      0.02s CPU      0.03s WALL (    1222 calls)

     Called by h_psi:
     h_psi:calbec :      0.08s CPU      0.08s WALL (    1706 calls)
     vloc_psi     :      4.14s CPU      4.18s WALL (    1706 calls)
     add_vuspsi   :      0.06s CPU      0.06s WALL (    1706 calls)

     General routines
     calbec       :      0.10s CPU      0.10s WALL (    2146 calls)
     fft          :      0.36s CPU      0.36s WALL (     269 calls)
     ffts         :      0.01s CPU      0.01s WALL (      42 calls)
     fftw         :      4.50s CPU      4.55s WALL (   33932 calls)
     interpolate  :      0.04s CPU      0.04s WALL (      22 calls)

     Parallel routines

     PWSCF        :      9.71s CPU     10.09s WALL


   This run was terminated on:  11: 4:50  19Apr2021            

=------------------------------------------------------------------------------=
   JOB DONE.
=------------------------------------------------------------------------------=
