
     Program PWSCF v.6.7GPU starts on  7May2021 at 10:29:50 

     This program is part of the open-source Quantum ESPRESSO suite
     for quantum simulation of materials; please cite
         "P. Giannozzi et al., J. Phys.:Condens. Matter 21 395502 (2009);
         "P. Giannozzi et al., J. Phys.:Condens. Matter 29 465901 (2017);
         "P. Giannozzi et al., J. Chem. Phys. 152 154105 (2020);
          URL http://www.quantum-espresso.org", 
     in publications or presentations arising from this work. More details at
     http://www.quantum-espresso.org/quote

     Parallel version (MPI & OpenMP), running on       2 processor cores
     Number of MPI processes:                 2
     Threads/MPI process:                     1

     MPI processes distributed on     1 nodes
     K-points division:     npool     =       2
     Reading input from co.nscf.in
Warning: card &IONS ignored
Warning: card / ignored
Warning: card &CELL ignored
Warning: card / ignored

     Current dimensions of program PWSCF are:
     Max number of different atomic species (ntypx) = 10
     Max number of k-points (npk) =  40000
     Max angular momentum in pseudopotentials (lmaxx) =  3

     Atomic positions and unit cell read from directory:
     /home/pietro/tmp/co.save/

     [opt_tetra]  Optimized tetrahedron method is used.

     Subspace diagonalization in iterative solution of the eigenvalue problem:
     a serial algorithm will be used


     G-vector sticks info
     --------------------
     sticks:   dense  smooth     PW     G-vecs:    dense   smooth      PW
     Sum         559     283     85                17009     5955    1099

     Using Slab Decomposition



     bravais-lattice index     =            4
     lattice parameter (alat)  =       4.7150  a.u.
     unit-cell volume          =     147.2403 (a.u.)^3
     number of atoms/cell      =            2
     number of atomic types    =            1
     number of electrons       =        34.00
     number of Kohn-Sham states=           20
     kinetic-energy cutoff     =      45.0000  Ry
     charge density cutoff     =     360.0000  Ry
     Exchange-correlation= SLA  PW   PBE  PBE
                           (   1   4   3   4   0   0   0)

     celldm(1)=   4.715000  celldm(2)=   0.000000  celldm(3)=   1.622000
     celldm(4)=   0.000000  celldm(5)=   0.000000  celldm(6)=   0.000000

     crystal axes: (cart. coord. in units of alat)
               a(1) = (   1.000000   0.000000   0.000000 )  
               a(2) = (  -0.500000   0.866025   0.000000 )  
               a(3) = (   0.000000   0.000000   1.622000 )  

     reciprocal axes: (cart. coord. in units 2 pi/alat)
               b(1) = (  1.000000  0.577350 -0.000000 )  
               b(2) = (  0.000000  1.154701  0.000000 )  
               b(3) = (  0.000000 -0.000000  0.616523 )  


     PseudoPot. # 1 for Co read from file:
     /home/pietro/repositories/materials-for-max-qe2021-online-school/pseudo/Co_pbe_v1.2.uspp.F.UPF
     MD5 check sum: 5f91765df6ddd3222702df6e7b74a16d
     Pseudo is Ultrasoft + core correction, Zval = 17.0
     Generated by new atomic code, or converted to UPF format
     Using radial grid of  863 points,  6 beta functions with: 
                l(1) =   0
                l(2) =   0
                l(3) =   1
                l(4) =   1
                l(5) =   2
                l(6) =   2
     Q(r) pseudized with  8 coefficients,  rinner =    1.200   1.200   1.200
                                                       1.200   1.200

     atomic species   valence    mass     pseudopotential
        Co            17.00    58.93300     Co( 1.00)

     Starting magnetic structure 
     atomic species   magnetization
        Co           0.700

     24 Sym. Ops., with inversion, found (12 have fractional translation)



   Cartesian axes

     site n.     atom                  positions (alat units)
         1           Co  tau(   1) = (   0.0000000   0.0000000   0.0000000  )
         2           Co  tau(   2) = (   0.5000000   0.2886751   0.8110000  )

     number of k points=   308 (tetrahedron method)

     Number of k-points >= 100: set verbosity='high' to print them.

     Dense  grid:    17009 G-vectors     FFT dimensions: (  30,  30,  48)

     Smooth grid:     5955 G-vectors     FFT dimensions: (  24,  24,  36)

     Estimated max dynamical RAM per process >      34.26 MB

     Estimated total dynamical RAM >      68.52 MB

     Check: negative core charge=   -0.000020
     Generating pointlists ...
     new r_m :   0.4107 (alat units)  1.9362 (a.u.) for type    1

     The potential is recalculated from file :
     /home/pietro/tmp/co.save/charge-density

     Starting wfcs are   26 randomized atomic wfcs

     Band Structure Calculation
     Davidson diagonalization with overlap

     ethr =  2.94E-11,  avg # of iterations = 13.8

     total cpu time spent up to now is       35.9 secs

     End of band structure calculation

     Number of k-points >= 100: set verbosity='high' to print the bands.

     the Fermi energy is    18.3818 ev
     (compare with:    18.3591 eV, computed in scf)

     Writing output data file /home/pietro/tmp/co.save/

     init_run     :      0.29s CPU      0.30s WALL (       1 calls)
     electrons    :     34.71s CPU     34.94s WALL (       1 calls)

     Called by init_run:
     wfcinit      :      0.00s CPU      0.00s WALL (       1 calls)
     potinit      :      0.04s CPU      0.04s WALL (       1 calls)
     hinit0       :      0.20s CPU      0.20s WALL (       1 calls)

     Called by electrons:
     c_bands      :     28.60s CPU     28.84s WALL (       1 calls)
     v_of_rho     :      0.04s CPU      0.04s WALL (       1 calls)
     newd         :      0.03s CPU      0.04s WALL (       1 calls)

     Called by c_bands:
     init_us_2    :      0.05s CPU      0.05s WALL (     308 calls)
     cegterg      :     24.68s CPU     24.84s WALL (     313 calls)

     Called by *egterg:
     cdiaghg      :      1.71s CPU      1.72s WALL (    4489 calls)
     h_psi        :     22.05s CPU     22.21s WALL (    4802 calls)
     s_psi        :      0.45s CPU      0.45s WALL (    4802 calls)
     g_psi        :      0.17s CPU      0.17s WALL (    4181 calls)

     Called by h_psi:
     h_psi:calbec :      0.51s CPU      0.51s WALL (    4802 calls)
     vloc_psi     :     21.01s CPU     21.17s WALL (    4802 calls)
     add_vuspsi   :      0.46s CPU      0.47s WALL (    4802 calls)

     General routines
     calbec       :      0.51s CPU      0.51s WALL (    4802 calls)
     fft          :      0.01s CPU      0.01s WALL (      23 calls)
     ffts         :      0.00s CPU      0.00s WALL (       2 calls)
     fftw         :     19.03s CPU     19.18s WALL (  149652 calls)
     interpolate  :      0.00s CPU      0.00s WALL (       2 calls)
     davcio       :      0.04s CPU      0.05s WALL (     616 calls)

     Parallel routines

     PWSCF        :     35.83s CPU     36.13s WALL


   This run was terminated on:  10:30:27   7May2021            

=------------------------------------------------------------------------------=
   JOB DONE.
=------------------------------------------------------------------------------=
