
     Program PROJWFC v.6.7GPU starts on  7May2021 at 10:39: 2 

     This program is part of the open-source Quantum ESPRESSO suite
     for quantum simulation of materials; please cite
         "P. Giannozzi et al., J. Phys.:Condens. Matter 21 395502 (2009);
         "P. Giannozzi et al., J. Phys.:Condens. Matter 29 465901 (2017);
         "P. Giannozzi et al., J. Chem. Phys. 152 154105 (2020);
          URL http://www.quantum-espresso.org", 
     in publications or presentations arising from this work. More details at
     http://www.quantum-espresso.org/quote

     Parallel version (MPI & OpenMP), running on       2 processor cores
     Number of MPI processes:                 2
     Threads/MPI process:                     1

     MPI processes distributed on     1 nodes
     R & G space division:  proc/nbgrp/npool/nimage =       2

     Reading xml data from directory:

     /home/pietro/tmp/co.save/

     IMPORTANT: XC functional enforced from input :
     Exchange-correlation= PBE
                           (   1   4   3   4   0   0   0)
     Any further DFT definition will be discarded
     Please, verify this is what you really want


     Parallelization info
     --------------------
     sticks:   dense  smooth     PW     G-vecs:    dense   smooth      PW
     Min         279     141     42                 8504     2977     546
     Max         280     142     43                 8505     2978     553
     Sum         559     283     85                17009     5955    1099

     Using Slab Decomposition


     Check: negative core charge=   -0.000020

     Optimized tetrahedron method (read from file) 
     [opt_tetra]  Optimized tetrahedron method is used.

     Calling projwave .... 

     Subspace diagonalization in iterative solution of the eigenvalue problem:
     a serial algorithm will be used


  Problem Sizes 
  natomwfc =           26
  nbnd     =           20
  nkstot   =          616
  npwx     =          392
  nkb      =           36


     Atomic states used for projection
     (read from pseudopotential files):

     state #   1: atom   1 (Co ), wfc  1 (l=0 m= 1)
     state #   2: atom   1 (Co ), wfc  2 (l=1 m= 1)
     state #   3: atom   1 (Co ), wfc  2 (l=1 m= 2)
     state #   4: atom   1 (Co ), wfc  2 (l=1 m= 3)
     state #   5: atom   1 (Co ), wfc  3 (l=2 m= 1)
     state #   6: atom   1 (Co ), wfc  3 (l=2 m= 2)
     state #   7: atom   1 (Co ), wfc  3 (l=2 m= 3)
     state #   8: atom   1 (Co ), wfc  3 (l=2 m= 4)
     state #   9: atom   1 (Co ), wfc  3 (l=2 m= 5)
     state #  10: atom   1 (Co ), wfc  4 (l=0 m= 1)
     state #  11: atom   1 (Co ), wfc  5 (l=1 m= 1)
     state #  12: atom   1 (Co ), wfc  5 (l=1 m= 2)
     state #  13: atom   1 (Co ), wfc  5 (l=1 m= 3)
     state #  14: atom   2 (Co ), wfc  1 (l=0 m= 1)
     state #  15: atom   2 (Co ), wfc  2 (l=1 m= 1)
     state #  16: atom   2 (Co ), wfc  2 (l=1 m= 2)
     state #  17: atom   2 (Co ), wfc  2 (l=1 m= 3)
     state #  18: atom   2 (Co ), wfc  3 (l=2 m= 1)
     state #  19: atom   2 (Co ), wfc  3 (l=2 m= 2)
     state #  20: atom   2 (Co ), wfc  3 (l=2 m= 3)
     state #  21: atom   2 (Co ), wfc  3 (l=2 m= 4)
     state #  22: atom   2 (Co ), wfc  3 (l=2 m= 5)
     state #  23: atom   2 (Co ), wfc  4 (l=0 m= 1)
     state #  24: atom   2 (Co ), wfc  5 (l=1 m= 1)
     state #  25: atom   2 (Co ), wfc  5 (l=1 m= 2)
     state #  26: atom   2 (Co ), wfc  5 (l=1 m= 3)

 k =   0.0000000000  0.0000000000  0.0220186718
==== e(   1) =   -77.91564 eV ==== 
     psi = 0.476*[#   1]+0.476*[#  14]+0.022*[#  10]+0.022*[#  23]+0.002*[#  11]
          +0.002*[#  24]
    |psi|^2 = 1.000
==== e(   2) =   -77.86186 eV ==== 
     psi = 0.497*[#   1]+0.497*[#  14]+0.001*[#   5]+0.001*[#  18]
    |psi|^2 = 0.999
==== e(   3) =   -41.29397 eV ==== 

    |psi|^2 = 0.001
==== e(   4) =   -41.01829 eV ==== 
     psi = 0.246*[#   3]+0.246*[#   4]+0.246*[#  16]+0.246*[#  17]+0.004*[#  12]
          +0.004*[#  13]+0.004*[#  25]+0.004*[#  26]
    |psi|^2 = 1.000
==== e(   5) =   -41.01829 eV ==== 
     psi = 0.246*[#   3]+0.246*[#   4]+0.246*[#  16]+0.246*[#  17]+0.004*[#  12]
          +0.004*[#  13]+0.004*[#  25]+0.004*[#  26]
    |psi|^2 = 1.000
==== e(   6) =   -40.97921 eV ==== 
     psi = 0.445*[#   2]+0.445*[#  15]+0.007*[#  11]+0.007*[#  24]
    |psi|^2 = 0.903
==== e(   7) =   -40.97275 eV ==== 
     psi = 0.491*[#   2]+0.491*[#  15]+0.245*[#   3]+0.245*[#   4]+0.245*[#  16]
          +0.245*[#  17]+0.009*[#  11]+0.009*[#  24]+0.005*[#  12]+0.005*[#  13]
          +0.005*[#  25]+0.005*[#  26]
    |psi|^2 = 2.000
==== e(   8) =   -40.97275 eV ==== 
     psi = 0.245*[#   3]+0.245*[#   4]+0.245*[#  16]+0.245*[#  17]+0.005*[#  12]
          +0.005*[#  13]+0.005*[#  25]+0.005*[#  26]
    |psi|^2 = 1.000
==== e(   9) =     9.35060 eV ==== 
     psi = 0.472*[#  10]+0.472*[#  23]+0.024*[#   1]+0.024*[#  14]+0.005*[#  11]
          +0.005*[#  24]
    |psi|^2 = 1.000
==== e(  10) =    13.11407 eV ==== 
     psi = 0.399*[#   5]+0.399*[#  18]+0.099*[#  10]+0.099*[#  23]
    |psi|^2 = 0.995
==== e(  11) =    15.61444 eV ==== 
     psi = 0.499*[#   5]+0.499*[#  18]+0.002*[#  11]+0.002*[#  24]
    |psi|^2 = 1.002
==== e(  12) =    15.65469 eV ==== 
     psi = 0.248*[#   8]+0.248*[#   9]+0.248*[#  21]+0.248*[#  22]+0.002*[#   6]
          +0.002*[#   7]+0.002*[#  19]+0.002*[#  20]
    |psi|^2 = 0.999
==== e(  13) =    15.65469 eV ==== 
     psi = 0.248*[#   8]+0.248*[#   9]+0.248*[#  21]+0.248*[#  22]+0.002*[#   6]
          +0.002*[#   7]+0.002*[#  19]+0.002*[#  20]
    |psi|^2 = 0.999
==== e(  14) =    15.96152 eV ==== 
     psi = 0.249*[#   8]+0.249*[#   9]+0.249*[#  21]+0.249*[#  22]
    |psi|^2 = 1.000
==== e(  15) =    15.96152 eV ==== 
     psi = 0.249*[#   8]+0.249*[#   9]+0.249*[#  21]+0.249*[#  22]
    |psi|^2 = 0.999
==== e(  16) =    16.32764 eV ==== 
     psi = 0.248*[#   6]+0.248*[#   7]+0.248*[#  19]+0.248*[#  20]+0.002*[#   8]
          +0.002*[#   9]+0.002*[#  21]+0.002*[#  22]
    |psi|^2 = 1.001
==== e(  17) =    16.32764 eV ==== 
     psi = 0.248*[#   6]+0.248*[#   7]+0.248*[#  19]+0.248*[#  20]+0.002*[#   8]
          +0.002*[#   9]+0.002*[#  21]+0.002*[#  22]
    |psi|^2 = 1.000
==== e(  18) =    17.40274 eV ==== 
     psi = 0.249*[#   6]+0.249*[#   7]+0.249*[#  19]+0.249*[#  20]
    |psi|^2 = 1.000
==== e(  19) =    17.40274 eV ==== 
     psi = 0.249*[#   6]+0.249*[#   7]+0.249*[#  19]+0.249*[#  20]
    |psi|^2 = 1.000
==== e(  20) =    18.06284 eV ==== 
     psi = 0.005*[#   5]+0.005*[#  18]+0.002*[#  10]+0.002*[#  23]
    |psi|^2 = 0.014

 k =   0.0000000000  0.0000000000  0.0660560155
==== e(   1) =   -77.91430 eV ==== 
     psi = 0.468*[#   1]+0.468*[#  14]+0.016*[#  10]+0.016*[#  11]+0.016*[#  23]
          +0.016*[#  24]
    |psi|^2 = 1.000
==== e(   2) =   -77.86321 eV ==== 
     psi = 0.494*[#   1]+0.494*[#  14]+0.001*[#   5]+0.001*[#  18]
    |psi|^2 = 0.991
==== e(   3) =   -41.28628 eV ==== 
     psi = 0.004*[#  11]+0.004*[#  24]
    |psi|^2 = 0.009
==== e(   4) =   -41.01718 eV ==== 
     psi = 0.246*[#   3]+0.246*[#   4]+0.246*[#  16]+0.246*[#  17]+0.004*[#  12]
          +0.004*[#  13]+0.004*[#  25]+0.004*[#  26]
    |psi|^2 = 1.000
==== e(   5) =   -41.01718 eV ==== 
     psi = 0.246*[#   3]+0.246*[#   4]+0.246*[#  16]+0.246*[#  17]+0.004*[#  12]
          +0.004*[#  13]+0.004*[#  25]+0.004*[#  26]
    |psi|^2 = 1.000
==== e(   6) =   -40.98728 eV ==== 
     psi = 0.448*[#   2]+0.448*[#  15]+0.007*[#  11]+0.007*[#  24]+0.001*[#  10]
          +0.001*[#  23]
    |psi|^2 = 0.913
==== e(   7) =   -40.97392 eV ==== 
     psi = 0.492*[#   2]+0.492*[#  15]+0.245*[#   3]+0.245*[#   4]+0.245*[#  16]
          +0.245*[#  17]+0.007*[#  11]+0.007*[#  24]+0.005*[#  12]+0.005*[#  13]
          +0.005*[#  25]+0.005*[#  26]
    |psi|^2 = 1.997
==== e(   8) =   -40.97392 eV ==== 
     psi = 0.245*[#   3]+0.245*[#   4]+0.245*[#  16]+0.245*[#  17]+0.005*[#  12]
          +0.005*[#  13]+0.005*[#  25]+0.005*[#  26]
    |psi|^2 = 1.000
==== e(   9) =     9.45292 eV ==== 
     psi = 0.437*[#  10]+0.437*[#  23]+0.038*[#  11]+0.038*[#  24]+0.025*[#   1]
          +0.025*[#  14]
    |psi|^2 = 1.000
==== e(  10) =    13.09299 eV ==== 
     psi = 0.382*[#   5]+0.382*[#  18]+0.102*[#  10]+0.102*[#  23]
    |psi|^2 = 0.969
==== e(  11) =    15.58821 eV ==== 
     psi = 0.499*[#   5]+0.499*[#  18]+0.015*[#  11]+0.015*[#  24]
    |psi|^2 = 1.028
==== e(  12) =    15.62744 eV ==== 
     psi = 0.236*[#   8]+0.236*[#   9]+0.236*[#  21]+0.236*[#  22]+0.014*[#   6]
          +0.014*[#   7]+0.014*[#  19]+0.014*[#  20]
    |psi|^2 = 0.999
==== e(  13) =    15.62744 eV ==== 
     psi = 0.236*[#   8]+0.236*[#   9]+0.236*[#  21]+0.236*[#  22]+0.014*[#   6]
          +0.014*[#   7]+0.014*[#  19]+0.014*[#  20]
    |psi|^2 = 0.999
==== e(  14) =    15.93401 eV ==== 
     psi = 0.245*[#   8]+0.245*[#   9]+0.245*[#  21]+0.245*[#  22]+0.004*[#   6]
          +0.004*[#   7]+0.004*[#  19]+0.004*[#  20]
    |psi|^2 = 1.000
==== e(  15) =    15.93401 eV ==== 
     psi = 0.245*[#   8]+0.245*[#   9]+0.245*[#  21]+0.245*[#  22]+0.004*[#   6]
          +0.004*[#   7]+0.004*[#  19]+0.004*[#  20]
    |psi|^2 = 0.999
==== e(  16) =    16.39061 eV ==== 
     psi = 0.236*[#   6]+0.236*[#   7]+0.236*[#  19]+0.236*[#  20]+0.014*[#   8]
          +0.014*[#   9]+0.014*[#  21]+0.014*[#  22]
    |psi|^2 = 1.001
==== e(  17) =    16.39061 eV ==== 
     psi = 0.236*[#   6]+0.236*[#   7]+0.236*[#  19]+0.236*[#  20]+0.014*[#   8]
          +0.014*[#   9]+0.014*[#  21]+0.014*[#  22]
    |psi|^2 = 1.000
==== e(  18) =    17.39718 eV ==== 
     psi = 0.246*[#   6]+0.246*[#   7]+0.246*[#  19]+0.246*[#  20]+0.004*[#   8]
          +0.004*[#   9]+0.004*[#  21]+0.004*[#  22]
    |psi|^2 = 1.000
==== e(  19) =    17.39718 eV ==== 
     psi = 0.246*[#   6]+0.246*[#   7]+0.246*[#  19]+0.246*[#  20]+0.004*[#   8]
          +0.004*[#   9]+0.004*[#  21]+0.004*[#  22]
    |psi|^2 = 1.000
==== e(  20) =    17.65411 eV ==== 
     psi = 0.038*[#   5]+0.038*[#  18]+0.014*[#  10]+0.014*[#  23]+0.002*[#   1]
          +0.002*[#  14]
    |psi|^2 = 0.109

 k =   0.0000000000  0.0000000000  0.1100933592
==== e(   1) =   -77.91167 eV ==== 
     psi = 0.458*[#   1]+0.458*[#  14]+0.034*[#  11]+0.034*[#  24]+0.008*[#  10]
          +0.008*[#  23]
    |psi|^2 = 1.000
==== e(   2) =   -77.86585 eV ==== 
     psi = 0.487*[#   1]+0.487*[#  14]+0.001*[#   5]+0.001*[#  18]
    |psi|^2 = 0.978
==== e(   3) =   -41.27109 eV ==== 
     psi = 0.011*[#  11]+0.011*[#  24]
    |psi|^2 = 0.024
==== e(   4) =   -41.01490 eV ==== 
     psi = 0.246*[#   3]+0.246*[#   4]+0.246*[#  16]+0.246*[#  17]+0.004*[#  12]
          +0.004*[#  13]+0.004*[#  25]+0.004*[#  26]
    |psi|^2 = 1.000
==== e(   5) =   -41.01490 eV ==== 
     psi = 0.246*[#   3]+0.246*[#   4]+0.246*[#  16]+0.246*[#  17]+0.004*[#  12]
          +0.004*[#  13]+0.004*[#  25]+0.004*[#  26]
    |psi|^2 = 1.000
==== e(   6) =   -41.00284 eV ==== 
     psi = 0.413*[#   2]+0.413*[#  15]+0.007*[#  11]+0.007*[#  24]+0.003*[#  10]
          +0.003*[#  23]
    |psi|^2 = 0.844
==== e(   7) =   -40.97612 eV ==== 
     psi = 0.493*[#   2]+0.493*[#  15]+0.245*[#   3]+0.245*[#   4]+0.245*[#  16]
          +0.245*[#  17]+0.005*[#  12]+0.005*[#  13]+0.005*[#  25]+0.005*[#  26]
          +0.004*[#  11]+0.004*[#  24]
    |psi|^2 = 1.994
==== e(   8) =   -40.97612 eV ==== 
     psi = 0.245*[#   3]+0.245*[#   4]+0.245*[#  16]+0.245*[#  17]+0.005*[#  12]
          +0.005*[#  13]+0.005*[#  25]+0.005*[#  26]
    |psi|^2 = 1.000
==== e(   9) =     9.65532 eV ==== 
     psi = 0.384*[#  10]+0.384*[#  23]+0.089*[#  11]+0.089*[#  24]+0.027*[#   1]
          +0.027*[#  14]
    |psi|^2 = 1.000
==== e(  10) =    13.03592 eV ==== 
     psi = 0.344*[#   5]+0.344*[#  18]+0.110*[#  10]+0.110*[#  23]+0.002*[#   1]
          +0.002*[#  14]
    |psi|^2 = 0.912
==== e(  11) =    15.53918 eV ==== 
     psi = 0.498*[#   5]+0.498*[#  18]+0.043*[#  11]+0.043*[#  24]
    |psi|^2 = 1.083
==== e(  12) =    15.59023 eV ==== 
     psi = 0.223*[#   8]+0.223*[#   9]+0.223*[#  21]+0.223*[#  22]+0.027*[#   6]
          +0.027*[#   7]+0.027*[#  19]+0.027*[#  20]
    |psi|^2 = 0.999
==== e(  13) =    15.59023 eV ==== 
     psi = 0.223*[#   8]+0.223*[#   9]+0.223*[#  21]+0.223*[#  22]+0.027*[#   6]
          +0.027*[#   7]+0.027*[#  19]+0.027*[#  20]
    |psi|^2 = 0.999
==== e(  14) =    15.88377 eV ==== 
     psi = 0.239*[#   8]+0.239*[#   9]+0.239*[#  21]+0.239*[#  22]+0.011*[#   6]
          +0.011*[#   7]+0.011*[#  19]+0.011*[#  20]
    |psi|^2 = 1.000
==== e(  15) =    15.88377 eV ==== 
     psi = 0.239*[#   8]+0.239*[#   9]+0.239*[#  21]+0.239*[#  22]+0.011*[#   6]
          +0.011*[#   7]+0.011*[#  19]+0.011*[#  20]
    |psi|^2 = 0.999
==== e(  16) =    16.49795 eV ==== 
     psi = 0.223*[#   6]+0.223*[#   7]+0.223*[#  19]+0.223*[#  20]+0.027*[#   8]
          +0.027*[#   9]+0.027*[#  21]+0.027*[#  22]
    |psi|^2 = 1.001
==== e(  17) =    16.49795 eV ==== 
     psi = 0.223*[#   6]+0.223*[#   7]+0.223*[#  19]+0.223*[#  20]+0.027*[#   8]
          +0.027*[#   9]+0.027*[#  21]+0.027*[#  22]
    |psi|^2 = 1.000
==== e(  18) =    17.03114 eV ==== 
     psi = 0.095*[#   5]+0.095*[#  18]+0.023*[#  10]+0.023*[#  23]+0.005*[#   1]
          +0.005*[#  14]
    |psi|^2 = 0.247
==== e(  19) =    17.38304 eV ==== 
     psi = 0.369*[#  11]+0.369*[#  24]+0.239*[#   6]+0.239*[#   7]+0.239*[#  19]
          +0.239*[#  20]+0.011*[#   8]+0.011*[#   9]+0.011*[#  21]+0.011*[#  22]
          +0.007*[#   2]+0.007*[#  15]
    |psi|^2 = 1.753
==== e(  20) =    17.38304 eV ==== 
     psi = 0.239*[#   6]+0.239*[#   7]+0.239*[#  19]+0.239*[#  20]+0.011*[#   8]
          +0.011*[#   9]+0.011*[#  21]+0.011*[#  22]
    |psi|^2 = 1.000

 k =   0.0000000000  0.0000000000  0.1541307028
==== e(   1) =   -77.90790 eV ==== 
     psi = 0.449*[#   1]+0.449*[#  14]+0.048*[#  11]+0.048*[#  24]+0.003*[#  10]
          +0.003*[#  23]
    |psi|^2 = 1.000
==== e(   2) =   -77.86964 eV ==== 
     psi = 0.478*[#   1]+0.478*[#  14]+0.001*[#  10]+0.001*[#  23]
    |psi|^2 = 0.960
==== e(   3) =   -41.24922 eV ==== 
     psi = 0.020*[#  11]+0.020*[#  24]
    |psi|^2 = 0.042
==== e(   4) =   -41.02517 eV ==== 
     psi = 0.004*[#  10]+0.004*[#  23]
    |psi|^2 = 0.008
==== e(   5) =   -41.01170 eV ==== 
     psi = 0.246*[#   3]+0.246*[#   4]+0.246*[#  16]+0.246*[#  17]+0.004*[#  12]
          +0.004*[#  13]+0.004*[#  25]+0.004*[#  26]
    |psi|^2 = 1.000
==== e(   6) =   -41.01170 eV ==== 
     psi = 0.246*[#   3]+0.246*[#   4]+0.246*[#  16]+0.246*[#  17]+0.172*[#   2]
          +0.172*[#  15]+0.004*[#  12]+0.004*[#  13]+0.004*[#  25]+0.004*[#  26]
          +0.003*[#  11]+0.003*[#  24]
    |psi|^2 = 1.350
==== e(   7) =   -40.97929 eV ==== 
     psi = 0.245*[#   3]+0.245*[#   4]+0.245*[#  16]+0.245*[#  17]+0.005*[#  12]
          +0.005*[#  13]+0.005*[#  25]+0.005*[#  26]
    |psi|^2 = 1.000
==== e(   8) =   -40.97929 eV ==== 
     psi = 0.320*[#   2]+0.320*[#  15]+0.245*[#   3]+0.245*[#   4]+0.245*[#  16]
          +0.245*[#  17]+0.005*[#  11]+0.005*[#  24]+0.005*[#  12]+0.005*[#  13]
          +0.005*[#  25]+0.005*[#  26]
    |psi|^2 = 1.650
==== e(   9) =     9.95296 eV ==== 
     psi = 0.329*[#  10]+0.329*[#  23]+0.141*[#  11]+0.141*[#  24]+0.028*[#   1]
          +0.028*[#  14]+0.001*[#   5]+0.001*[#  18]
    |psi|^2 = 1.000
==== e(  10) =    12.91040 eV ==== 
     psi = 0.282*[#   5]+0.282*[#  18]+0.123*[#  10]+0.123*[#  23]+0.004*[#   1]
          +0.004*[#  14]
    |psi|^2 = 0.820
==== e(  11) =    15.47351 eV ==== 
     psi = 0.496*[#   5]+0.496*[#  18]+0.088*[#  11]+0.088*[#  24]+0.002*[#   2]
          +0.002*[#  15]
    |psi|^2 = 1.171
==== e(  12) =    15.55911 eV ==== 
     psi = 0.214*[#   8]+0.214*[#   9]+0.214*[#  21]+0.214*[#  22]+0.036*[#   6]
          +0.036*[#   7]+0.036*[#  19]+0.036*[#  20]
    |psi|^2 = 0.999
==== e(  13) =    15.55911 eV ==== 
     psi = 0.214*[#   8]+0.214*[#   9]+0.214*[#  21]+0.214*[#  22]+0.036*[#   6]
          +0.036*[#   7]+0.036*[#  19]+0.036*[#  20]
    |psi|^2 = 0.999
==== e(  14) =    15.81847 eV ==== 
     psi = 0.231*[#   8]+0.231*[#   9]+0.231*[#  21]+0.231*[#  22]+0.018*[#   6]
          +0.018*[#   7]+0.018*[#  19]+0.018*[#  20]
    |psi|^2 = 0.999
==== e(  15) =    15.81847 eV ==== 
     psi = 0.231*[#   8]+0.231*[#   9]+0.231*[#  21]+0.231*[#  22]+0.018*[#   6]
          +0.018*[#   7]+0.018*[#  19]+0.018*[#  20]
    |psi|^2 = 0.999
==== e(  16) =    16.38942 eV ==== 
     psi = 0.174*[#   5]+0.174*[#  18]+0.023*[#  10]+0.023*[#  23]+0.007*[#   1]
          +0.007*[#  14]
    |psi|^2 = 0.409
==== e(  17) =    16.62933 eV ==== 
     psi = 0.214*[#   6]+0.214*[#   7]+0.214*[#  19]+0.214*[#  20]+0.036*[#   8]
          +0.036*[#   9]+0.036*[#  21]+0.036*[#  22]
    |psi|^2 = 1.000
==== e(  18) =    16.62933 eV ==== 
     psi = 0.214*[#   6]+0.214*[#   7]+0.214*[#  19]+0.214*[#  20]+0.036*[#   8]
          +0.036*[#   9]+0.036*[#  21]+0.036*[#  22]
    |psi|^2 = 1.000
==== e(  19) =    17.35504 eV ==== 
     psi = 0.231*[#   6]+0.231*[#   7]+0.231*[#  19]+0.231*[#  20]+0.018*[#   8]
          +0.018*[#   9]+0.018*[#  21]+0.018*[#  22]
    |psi|^2 = 1.000
==== e(  20) =    17.35504 eV ==== 
     psi = 0.231*[#   6]+0.231*[#   7]+0.231*[#  19]+0.231*[#  20]+0.018*[#   8]
          +0.018*[#   9]+0.018*[#  21]+0.018*[#  22]
    |psi|^2 = 1.001

 k =   0.0000000000  0.0000000000  0.1981680465
==== e(   1) =   -77.90317 eV ==== 
     psi = 0.444*[#   1]+0.444*[#  14]+0.056*[#  11]+0.056*[#  24]
    |psi|^2 = 1.000
==== e(   2) =   -77.87438 eV ==== 
     psi = 0.468*[#   1]+0.468*[#  14]+0.001*[#  10]+0.001*[#  23]
    |psi|^2 = 0.941
==== e(   3) =   -41.22172 eV ==== 
     psi = 0.030*[#  11]+0.030*[#  24]+0.002*[#  10]+0.002*[#  23]
    |psi|^2 = 0.063
==== e(   4) =   -41.05308 eV ==== 
     psi = 0.004*[#  10]+0.004*[#  23]
    |psi|^2 = 0.008
==== e(   5) =   -41.00770 eV ==== 
     psi = 0.246*[#   3]+0.246*[#   4]+0.246*[#  16]+0.246*[#  17]+0.004*[#  12]
          +0.004*[#  13]+0.004*[#  25]+0.004*[#  26]
    |psi|^2 = 1.000
==== e(   6) =   -41.00770 eV ==== 
     psi = 0.246*[#   3]+0.246*[#   4]+0.246*[#  16]+0.246*[#  17]+0.004*[#  12]
          +0.004*[#  13]+0.004*[#  25]+0.004*[#  26]
    |psi|^2 = 1.001
==== e(   7) =   -40.98329 eV ==== 
     psi = 0.245*[#   3]+0.245*[#   4]+0.245*[#  16]+0.245*[#  17]+0.005*[#  12]
          +0.005*[#  13]+0.005*[#  25]+0.005*[#  26]
    |psi|^2 = 1.000
==== e(   8) =   -40.98329 eV ==== 
     psi = 0.491*[#   2]+0.491*[#  15]+0.245*[#   3]+0.245*[#   4]+0.245*[#  16]
          +0.245*[#  17]+0.008*[#  11]+0.008*[#  24]+0.005*[#  12]+0.005*[#  13]
          +0.005*[#  25]+0.005*[#  26]
    |psi|^2 = 1.999
==== e(   9) =    10.33744 eV ==== 
     psi = 0.281*[#  10]+0.281*[#  23]+0.184*[#  11]+0.184*[#  24]+0.029*[#   1]
          +0.029*[#  14]+0.004*[#   5]+0.004*[#  18]+0.001*[#   2]+0.001*[#  15]
          
    |psi|^2 = 1.000
==== e(  10) =    12.67348 eV ==== 
     psi = 0.199*[#   5]+0.199*[#  18]+0.142*[#  10]+0.142*[#  23]+0.009*[#   1]
          +0.009*[#  14]
    |psi|^2 = 0.701
==== e(  11) =    15.40188 eV ==== 
     psi = 0.491*[#   5]+0.491*[#  18]+0.146*[#  11]+0.146*[#  24]+0.003*[#   2]
          +0.003*[#  15]
    |psi|^2 = 1.282
==== e(  12) =    15.54382 eV ==== 
     psi = 0.209*[#   8]+0.209*[#   9]+0.209*[#  21]+0.209*[#  22]+0.041*[#   6]
          +0.041*[#   7]+0.041*[#  19]+0.041*[#  20]
    |psi|^2 = 0.999
==== e(  13) =    15.54382 eV ==== 
     psi = 0.209*[#   8]+0.209*[#   9]+0.209*[#  21]+0.209*[#  22]+0.041*[#   6]
          +0.041*[#   7]+0.041*[#  19]+0.041*[#  20]
    |psi|^2 = 0.999
==== e(  14) =    15.74701 eV ==== 
     psi = 0.224*[#   8]+0.224*[#   9]+0.224*[#  21]+0.224*[#  22]+0.026*[#   6]
          +0.026*[#   7]+0.026*[#  19]+0.026*[#  20]
    |psi|^2 = 0.999
==== e(  15) =    15.74701 eV ==== 
     psi = 0.224*[#   8]+0.224*[#   9]+0.224*[#  21]+0.224*[#  22]+0.026*[#   6]
          +0.026*[#   7]+0.026*[#  19]+0.026*[#  20]
    |psi|^2 = 0.999
==== e(  16) =    15.86311 eV ==== 
     psi = 0.269*[#   5]+0.269*[#  18]+0.016*[#  10]+0.016*[#  23]+0.008*[#   1]
          +0.008*[#  14]
    |psi|^2 = 0.587
==== e(  17) =    16.76974 eV ==== 
     psi = 0.209*[#   6]+0.209*[#   7]+0.209*[#  19]+0.209*[#  20]+0.041*[#   8]
          +0.041*[#   9]+0.041*[#  21]+0.041*[#  22]
    |psi|^2 = 1.000
==== e(  18) =    16.76974 eV ==== 
     psi = 0.209*[#   6]+0.209*[#   7]+0.209*[#  19]+0.209*[#  20]+0.041*[#   8]
          +0.041*[#   9]+0.041*[#  21]+0.041*[#  22]
    |psi|^2 = 1.000
==== e(  19) =    17.30826 eV ==== 
     psi = 0.224*[#   6]+0.224*[#   7]+0.224*[#  19]+0.224*[#  20]+0.026*[#   8]
          +0.026*[#   9]+0.026*[#  21]+0.026*[#  22]
    |psi|^2 = 1.000
==== e(  20) =    17.30826 eV ==== 
     psi = 0.224*[#   6]+0.224*[#   7]+0.224*[#  19]+0.224*[#  20]+0.026*[#   8]
          +0.026*[#   9]+0.026*[#  21]+0.026*[#  22]
    |psi|^2 = 1.001

 k =   0.0000000000  0.0000000000  0.2422053902
==== e(   1) =   -77.89772 eV ==== 
     psi = 0.443*[#   1]+0.443*[#  14]+0.057*[#  11]+0.057*[#  24]
    |psi|^2 = 1.000
==== e(   2) =   -77.87985 eV ==== 
     psi = 0.459*[#   1]+0.459*[#  14]+0.001*[#  10]+0.001*[#  23]
    |psi|^2 = 0.922
==== e(   3) =   -41.18997 eV ==== 
     psi = 0.039*[#  11]+0.039*[#  24]+0.002*[#  10]+0.002*[#  23]
    |psi|^2 = 0.083
==== e(   4) =   -41.08521 eV ==== 
     psi = 0.004*[#  10]+0.004*[#  23]
    |psi|^2 = 0.008
==== e(   5) =   -41.00308 eV ==== 
     psi = 0.246*[#   3]+0.246*[#   4]+0.246*[#  16]+0.246*[#  17]+0.004*[#  12]
          +0.004*[#  13]+0.004*[#  25]+0.004*[#  26]
    |psi|^2 = 1.000
==== e(   6) =   -41.00308 eV ==== 
     psi = 0.246*[#   3]+0.246*[#   4]+0.246*[#  16]+0.246*[#  17]+0.004*[#  12]
          +0.004*[#  13]+0.004*[#  25]+0.004*[#  26]
    |psi|^2 = 1.001
==== e(   7) =   -40.98791 eV ==== 
     psi = 0.245*[#   3]+0.245*[#   4]+0.245*[#  16]+0.245*[#  17]+0.005*[#  12]
          +0.005*[#  13]+0.005*[#  25]+0.005*[#  26]
    |psi|^2 = 1.000
==== e(   8) =   -40.98791 eV ==== 
     psi = 0.491*[#   2]+0.491*[#  15]+0.245*[#   3]+0.245*[#   4]+0.245*[#  16]
          +0.245*[#  17]+0.008*[#  11]+0.008*[#  24]+0.005*[#  12]+0.005*[#  13]
          +0.005*[#  25]+0.005*[#  26]
    |psi|^2 = 1.999
==== e(   9) =    10.79501 eV ==== 
     psi = 0.242*[#  10]+0.242*[#  23]+0.216*[#  11]+0.216*[#  24]+0.028*[#   1]
          +0.028*[#  14]+0.012*[#   5]+0.012*[#  18]+0.002*[#   2]+0.002*[#  15]
          
    |psi|^2 = 1.000
==== e(  10) =    12.30160 eV ==== 
     psi = 0.164*[#  10]+0.164*[#  23]+0.117*[#   5]+0.117*[#  18]+0.015*[#   1]
          +0.015*[#  14]
    |psi|^2 = 0.592
==== e(  11) =    15.33986 eV ==== 
     psi = 0.481*[#   5]+0.481*[#  18]+0.200*[#  11]+0.200*[#  24]+0.004*[#   2]
          +0.004*[#  15]+0.001*[#   1]+0.001*[#  14]
    |psi|^2 = 1.373
==== e(  12) =    15.52056 eV ==== 
     psi = 0.361*[#   5]+0.361*[#  18]+0.008*[#  10]+0.008*[#  23]+0.006*[#   1]
          +0.006*[#  14]
    |psi|^2 = 0.750
==== e(  13) =    15.54852 eV ==== 
     psi = 0.207*[#   8]+0.207*[#   9]+0.207*[#  21]+0.207*[#  22]+0.042*[#   6]
          +0.042*[#   7]+0.042*[#  19]+0.042*[#  20]
    |psi|^2 = 0.999
==== e(  14) =    15.54852 eV ==== 
     psi = 0.207*[#   8]+0.207*[#   9]+0.207*[#  21]+0.207*[#  22]+0.042*[#   6]
          +0.042*[#   7]+0.042*[#  19]+0.042*[#  20]
    |psi|^2 = 0.999
==== e(  15) =    15.67787 eV ==== 
     psi = 0.217*[#   8]+0.217*[#   9]+0.217*[#  21]+0.217*[#  22]+0.033*[#   6]
          +0.033*[#   7]+0.033*[#  19]+0.033*[#  20]
    |psi|^2 = 0.999
==== e(  16) =    15.67787 eV ==== 
     psi = 0.217*[#   8]+0.217*[#   9]+0.217*[#  21]+0.217*[#  22]+0.033*[#   6]
          +0.033*[#   7]+0.033*[#  19]+0.033*[#  20]
    |psi|^2 = 0.999
==== e(  17) =    16.90826 eV ==== 
     psi = 0.207*[#   6]+0.207*[#   7]+0.207*[#  19]+0.207*[#  20]+0.042*[#   8]
          +0.042*[#   9]+0.042*[#  21]+0.042*[#  22]
    |psi|^2 = 1.000
==== e(  18) =    16.90826 eV ==== 
     psi = 0.207*[#   6]+0.207*[#   7]+0.207*[#  19]+0.207*[#  20]+0.042*[#   8]
          +0.042*[#   9]+0.042*[#  21]+0.042*[#  22]
    |psi|^2 = 1.000
==== e(  19) =    17.23955 eV ==== 
     psi = 0.217*[#   6]+0.217*[#   7]+0.217*[#  19]+0.217*[#  20]+0.033*[#   8]
          +0.033*[#   9]+0.033*[#  21]+0.033*[#  22]
    |psi|^2 = 1.000
==== e(  20) =    17.23955 eV ==== 
     psi = 0.217*[#   6]+0.217*[#   7]+0.217*[#  19]+0.217*[#  20]+0.033*[#   8]
          +0.033*[#   9]+0.033*[#  21]+0.033*[#  22]
    |psi|^2 = 1.001

 k =   0.0000000000  0.0000000000  0.2862427338
==== e(   1) =   -77.89182 eV ==== 
     psi = 0.446*[#   1]+0.446*[#  14]+0.054*[#  11]+0.054*[#  24]
    |psi|^2 = 1.000
==== e(   2) =   -77.88576 eV ==== 
     psi = 0.451*[#   1]+0.451*[#  14]
    |psi|^2 = 0.905
==== e(   3) =   -41.15552 eV ==== 
     psi = 0.048*[#  11]+0.048*[#  24]+0.003*[#  10]+0.003*[#  23]
    |psi|^2 = 0.101
==== e(   4) =   -41.11993 eV ==== 
     psi = 0.004*[#  10]+0.004*[#  23]
    |psi|^2 = 0.007
==== e(   5) =   -40.99811 eV ==== 
     psi = 0.246*[#   3]+0.246*[#   4]+0.246*[#  16]+0.246*[#  17]+0.004*[#  12]
          +0.004*[#  13]+0.004*[#  25]+0.004*[#  26]
    |psi|^2 = 1.000
==== e(   6) =   -40.99811 eV ==== 
     psi = 0.246*[#   3]+0.246*[#   4]+0.246*[#  16]+0.246*[#  17]+0.004*[#  12]
          +0.004*[#  13]+0.004*[#  25]+0.004*[#  26]
    |psi|^2 = 1.001
==== e(   7) =   -40.99296 eV ==== 
     psi = 0.246*[#   3]+0.246*[#   4]+0.246*[#  16]+0.246*[#  17]+0.004*[#  12]
          +0.004*[#  13]+0.004*[#  25]+0.004*[#  26]
    |psi|^2 = 1.000
==== e(   8) =   -40.99296 eV ==== 
     psi = 0.491*[#   2]+0.491*[#  15]+0.246*[#   3]+0.246*[#   4]+0.246*[#  16]
          +0.246*[#  17]+0.009*[#  11]+0.009*[#  24]+0.004*[#  12]+0.004*[#  13]
          +0.004*[#  25]+0.004*[#  26]
    |psi|^2 = 1.999
==== e(   9) =    11.30293 eV ==== 
     psi = 0.233*[#  11]+0.233*[#  24]+0.211*[#  10]+0.211*[#  23]+0.027*[#   5]
          +0.027*[#  18]+0.025*[#   1]+0.025*[#  14]+0.003*[#   2]+0.003*[#  15]
          
    |psi|^2 = 1.000
==== e(  10) =    11.82385 eV ==== 
     psi = 0.186*[#  10]+0.186*[#  23]+0.059*[#   5]+0.059*[#  18]+0.021*[#   1]
          +0.021*[#  14]
    |psi|^2 = 0.533
==== e(  11) =    15.31169 eV ==== 
     psi = 0.462*[#   5]+0.462*[#  18]+0.230*[#  11]+0.230*[#  24]+0.004*[#   2]
          +0.004*[#  15]+0.002*[#   1]+0.002*[#  14]+0.001*[#  10]+0.001*[#  23]
          
    |psi|^2 = 1.398
==== e(  12) =    15.35429 eV ==== 
     psi = 0.425*[#   5]+0.425*[#  18]+0.004*[#   1]+0.004*[#  14]+0.003*[#  10]
          +0.003*[#  23]
    |psi|^2 = 0.865
==== e(  13) =    15.57391 eV ==== 
     psi = 0.208*[#   8]+0.208*[#   9]+0.208*[#  21]+0.208*[#  22]+0.041*[#   6]
          +0.041*[#   7]+0.041*[#  19]+0.041*[#  20]
    |psi|^2 = 0.999
==== e(  14) =    15.57391 eV ==== 
     psi = 0.208*[#   8]+0.208*[#   9]+0.208*[#  21]+0.208*[#  22]+0.041*[#   6]
          +0.041*[#   7]+0.041*[#  19]+0.041*[#  20]
    |psi|^2 = 0.999
==== e(  15) =    15.61826 eV ==== 
     psi = 0.212*[#   8]+0.212*[#   9]+0.212*[#  21]+0.212*[#  22]+0.038*[#   6]
          +0.038*[#   7]+0.038*[#  19]+0.038*[#  20]
    |psi|^2 = 0.999
==== e(  16) =    15.61826 eV ==== 
     psi = 0.212*[#   8]+0.212*[#   9]+0.212*[#  21]+0.212*[#  22]+0.038*[#   6]
          +0.038*[#   7]+0.038*[#  19]+0.038*[#  20]
    |psi|^2 = 0.999
==== e(  17) =    17.03643 eV ==== 
     psi = 0.208*[#   6]+0.208*[#   7]+0.208*[#  19]+0.208*[#  20]+0.041*[#   8]
          +0.041*[#   9]+0.041*[#  21]+0.041*[#  22]
    |psi|^2 = 1.000
==== e(  18) =    17.03643 eV ==== 
     psi = 0.208*[#   6]+0.208*[#   7]+0.208*[#  19]+0.208*[#  20]+0.041*[#   8]
          +0.041*[#   9]+0.041*[#  21]+0.041*[#  22]
    |psi|^2 = 1.000
==== e(  19) =    17.14817 eV ==== 
     psi = 0.212*[#   6]+0.212*[#   7]+0.212*[#  19]+0.212*[#  20]+0.038*[#   8]
          +0.038*[#   9]+0.038*[#  21]+0.038*[#  22]
    |psi|^2 = 1.000
==== e(  20) =    17.14817 eV ==== 
     psi = 0.212*[#   6]+0.212*[#   7]+0.212*[#  19]+0.212*[#  20]+0.038*[#   8]
          +0.038*[#   9]+0.038*[#  21]+0.038*[#  22]
    |psi|^2 = 1.001

 k =   0.0000000000  0.0577350269  0.0220186718
==== e(   1) =   -77.91452 eV ==== 
     psi = 0.469*[#   1]+0.469*[#  14]+0.017*[#  10]+0.017*[#  23]+0.006*[#  12]
          +0.006*[#  13]+0.006*[#  25]+0.006*[#  26]+0.002*[#  11]+0.002*[#  24]
          
    |psi|^2 = 1.000
==== e(   2) =   -77.86133 eV ==== 
     psi = 0.496*[#   1]+0.496*[#  14]+0.001*[#   5]+0.001*[#  18]
    |psi|^2 = 0.999
==== e(   3) =   -41.29153 eV ==== 

    |psi|^2 = 0.001
==== e(   4) =   -41.02388 eV ==== 
     psi = 0.247*[#   3]+0.247*[#   4]+0.247*[#  16]+0.247*[#  17]+0.003*[#  12]
          +0.003*[#  13]+0.003*[#  25]+0.003*[#  26]
    |psi|^2 = 1.000
==== e(   5) =   -41.02010 eV ==== 
     psi = 0.246*[#   3]+0.246*[#   4]+0.246*[#  16]+0.246*[#  17]+0.004*[#  12]
          +0.004*[#  13]+0.004*[#  25]+0.004*[#  26]
    |psi|^2 = 1.000
==== e(   6) =   -40.98121 eV ==== 
     psi = 0.493*[#   2]+0.493*[#  15]+0.067*[#   3]+0.067*[#   4]+0.067*[#  16]
          +0.067*[#  17]+0.007*[#  11]+0.007*[#  24]
    |psi|^2 = 1.272
==== e(   7) =   -40.97766 eV ==== 
     psi = 0.358*[#   2]+0.358*[#  15]+0.179*[#   3]+0.179*[#   4]+0.179*[#  16]
          +0.179*[#  17]+0.006*[#  11]+0.006*[#  24]+0.003*[#  12]+0.003*[#  13]
          +0.003*[#  25]+0.003*[#  26]
    |psi|^2 = 1.455
==== e(   8) =   -40.97372 eV ==== 
     psi = 0.245*[#   3]+0.245*[#   4]+0.245*[#  16]+0.245*[#  17]+0.005*[#  12]
          +0.005*[#  13]+0.005*[#  25]+0.005*[#  26]
    |psi|^2 = 1.000
==== e(   9) =     9.43846 eV ==== 
     psi = 0.441*[#  10]+0.441*[#  23]+0.025*[#   1]+0.025*[#  14]+0.015*[#  12]
          +0.015*[#  13]+0.015*[#  25]+0.015*[#  26]+0.004*[#  11]+0.004*[#  24]
          
    |psi|^2 = 1.000
==== e(  10) =    13.16815 eV ==== 
     psi = 0.398*[#   5]+0.398*[#  18]+0.093*[#  10]+0.093*[#  23]+0.002*[#  12]
          +0.002*[#  13]+0.002*[#  25]+0.002*[#  26]
    |psi|^2 = 0.995
==== e(  11) =    15.51225 eV ==== 
     psi = 0.235*[#   5]+0.235*[#  18]+0.132*[#   8]+0.132*[#   9]+0.132*[#  21]
          +0.132*[#  22]+0.002*[#  11]+0.002*[#  24]
    |psi|^2 = 1.002
==== e(  12) =    15.69526 eV ==== 
     psi = 0.247*[#   8]+0.247*[#   9]+0.247*[#  21]+0.247*[#  22]+0.002*[#   6]
          +0.002*[#   7]+0.002*[#  19]+0.002*[#  20]
    |psi|^2 = 0.999
==== e(  13) =    15.74428 eV ==== 
     psi = 0.263*[#   5]+0.263*[#  18]+0.116*[#   8]+0.116*[#   9]+0.116*[#  21]
          +0.116*[#  22]+0.002*[#   6]+0.002*[#   7]+0.002*[#  19]+0.002*[#  20]
          
    |psi|^2 = 0.999
==== e(  14) =    15.93951 eV ==== 
     psi = 0.248*[#   8]+0.248*[#   9]+0.248*[#  21]+0.248*[#  22]+0.001*[#   5]
          +0.001*[#   6]+0.001*[#   7]+0.001*[#  18]+0.001*[#  19]+0.001*[#  20]
          
    |psi|^2 = 0.999
==== e(  15) =    15.99753 eV ==== 
     psi = 0.249*[#   8]+0.249*[#   9]+0.249*[#  21]+0.249*[#  22]
    |psi|^2 = 1.000
==== e(  16) =    16.28589 eV ==== 
     psi = 0.246*[#   6]+0.246*[#   7]+0.246*[#  19]+0.246*[#  20]+0.003*[#   8]
          +0.003*[#   9]+0.003*[#  21]+0.003*[#  22]+0.001*[#   5]+0.001*[#  18]
          
    |psi|^2 = 0.996
==== e(  17) =    16.30210 eV ==== 
     psi = 0.247*[#   6]+0.247*[#   7]+0.247*[#  19]+0.247*[#  20]+0.002*[#   8]
          +0.002*[#   9]+0.002*[#  21]+0.002*[#  22]
    |psi|^2 = 1.000
==== e(  18) =    16.96624 eV ==== 
     psi = 0.184*[#   6]+0.184*[#   7]+0.184*[#  19]+0.184*[#  20]+0.001*[#   5]
          +0.001*[#  18]
    |psi|^2 = 0.745
==== e(  19) =    17.41383 eV ==== 
     psi = 0.249*[#   6]+0.249*[#   7]+0.249*[#  19]+0.249*[#  20]+0.125*[#  11]
          +0.125*[#  24]+0.003*[#   2]+0.003*[#  15]
    |psi|^2 = 1.255
==== e(  20) =    18.60016 eV ==== 
     psi = 0.066*[#   6]+0.066*[#   7]+0.066*[#  19]+0.066*[#  20]+0.004*[#   5]
          +0.004*[#  18]+0.002*[#  10]+0.002*[#  23]
    |psi|^2 = 0.274

 k =   0.0000000000  0.0577350269  0.0660560155
==== e(   1) =   -77.91319 eV ==== 
     psi = 0.463*[#   1]+0.463*[#  14]+0.014*[#  11]+0.014*[#  24]+0.012*[#  10]
          +0.012*[#  23]+0.005*[#  12]+0.005*[#  13]+0.005*[#  25]+0.005*[#  26]
          
    |psi|^2 = 1.000
==== e(   2) =   -77.86267 eV ==== 
     psi = 0.492*[#   1]+0.492*[#  14]+0.001*[#   5]+0.001*[#  18]+0.001*[#  10]
          +0.001*[#  23]
    |psi|^2 = 0.992
==== e(   3) =   -41.28395 eV ==== 
     psi = 0.004*[#  11]+0.004*[#  24]
    |psi|^2 = 0.009
==== e(   4) =   -41.02267 eV ==== 
     psi = 0.246*[#   3]+0.246*[#   4]+0.246*[#  16]+0.246*[#  17]+0.003*[#  12]
          +0.003*[#  13]+0.003*[#  25]+0.003*[#  26]
    |psi|^2 = 1.000
==== e(   5) =   -41.01896 eV ==== 
     psi = 0.246*[#   3]+0.246*[#   4]+0.246*[#  16]+0.246*[#  17]+0.004*[#  12]
          +0.004*[#  13]+0.004*[#  25]+0.004*[#  26]
    |psi|^2 = 1.000
==== e(   6) =   -40.99023 eV ==== 
     psi = 0.493*[#   2]+0.493*[#  15]+0.041*[#   3]+0.041*[#   4]+0.041*[#  16]
          +0.041*[#  17]+0.007*[#  11]+0.007*[#  24]+0.002*[#  10]+0.002*[#  23]
          
    |psi|^2 = 1.167
==== e(   7) =   -40.97770 eV ==== 
     psi = 0.411*[#   2]+0.411*[#  15]+0.205*[#   3]+0.205*[#   4]+0.205*[#  16]
          +0.205*[#  17]+0.005*[#  11]+0.005*[#  24]+0.003*[#  12]+0.003*[#  13]
          +0.003*[#  25]+0.003*[#  26]
    |psi|^2 = 1.668
==== e(   8) =   -40.97488 eV ==== 
     psi = 0.245*[#   3]+0.245*[#   4]+0.245*[#  16]+0.245*[#  17]+0.005*[#  12]
          +0.005*[#  13]+0.005*[#  25]+0.005*[#  26]
    |psi|^2 = 1.000
==== e(   9) =     9.54023 eV ==== 
     psi = 0.412*[#  10]+0.412*[#  23]+0.035*[#  11]+0.035*[#  24]+0.026*[#   1]
          +0.026*[#  14]+0.013*[#  12]+0.013*[#  13]+0.013*[#  25]+0.013*[#  26]
          
    |psi|^2 = 1.000
==== e(  10) =    13.14906 eV ==== 
     psi = 0.382*[#   5]+0.382*[#  18]+0.097*[#  10]+0.097*[#  23]+0.002*[#  12]
          +0.002*[#  13]+0.002*[#  25]+0.002*[#  26]
    |psi|^2 = 0.970
==== e(  11) =    15.50245 eV ==== 
     psi = 0.238*[#   5]+0.238*[#  18]+0.127*[#   8]+0.127*[#   9]+0.127*[#  21]
          +0.127*[#  22]+0.014*[#  11]+0.014*[#  24]+0.003*[#   6]+0.003*[#   7]
          +0.003*[#  19]+0.003*[#  20]
    |psi|^2 = 1.027
==== e(  12) =    15.66557 eV ==== 
     psi = 0.234*[#   8]+0.234*[#   9]+0.234*[#  21]+0.234*[#  22]+0.016*[#   6]
          +0.016*[#   7]+0.016*[#  19]+0.016*[#  20]
    |psi|^2 = 0.999
==== e(  13) =    15.69308 eV ==== 
     psi = 0.255*[#   5]+0.255*[#  18]+0.107*[#   8]+0.107*[#   9]+0.107*[#  21]
          +0.107*[#  22]+0.016*[#   6]+0.016*[#   7]+0.016*[#  19]+0.016*[#  20]
          
    |psi|^2 = 0.999
==== e(  14) =    15.90221 eV ==== 
     psi = 0.240*[#   8]+0.240*[#   9]+0.240*[#  21]+0.240*[#  22]+0.008*[#   6]
          +0.008*[#   7]+0.008*[#  19]+0.008*[#  20]
    |psi|^2 = 0.994
==== e(  15) =    15.96905 eV ==== 
     psi = 0.244*[#   8]+0.244*[#   9]+0.244*[#  21]+0.244*[#  22]+0.005*[#   6]
          +0.005*[#   7]+0.005*[#  19]+0.005*[#  20]+0.003*[#  11]+0.003*[#  24]
          
    |psi|^2 = 1.005
==== e(  16) =    16.35853 eV ==== 
     psi = 0.228*[#   6]+0.228*[#   7]+0.228*[#  19]+0.228*[#  20]+0.017*[#   8]
          +0.017*[#   9]+0.017*[#  21]+0.017*[#  22]+0.006*[#   5]+0.006*[#  18]
          
    |psi|^2 = 0.994
==== e(  17) =    16.36937 eV ==== 
     psi = 0.233*[#   6]+0.233*[#   7]+0.233*[#  19]+0.233*[#  20]+0.017*[#   8]
          +0.017*[#   9]+0.017*[#  21]+0.017*[#  22]
    |psi|^2 = 1.000
==== e(  18) =    16.87439 eV ==== 
     psi = 0.153*[#   6]+0.153*[#   7]+0.153*[#  19]+0.153*[#  20]+0.015*[#   5]
          +0.015*[#  18]+0.007*[#   8]+0.007*[#   9]+0.007*[#  21]+0.007*[#  22]
          +0.003*[#  10]+0.003*[#  23]
    |psi|^2 = 0.680
==== e(  19) =    17.40730 eV ==== 
     psi = 0.246*[#   6]+0.246*[#   7]+0.246*[#  19]+0.246*[#  20]+0.157*[#  11]
          +0.157*[#  24]+0.004*[#   8]+0.004*[#   9]+0.004*[#  21]+0.004*[#  22]
          +0.003*[#   2]+0.003*[#  15]
    |psi|^2 = 1.319
==== e(  20) =    18.27177 eV ==== 
     psi = 0.091*[#   6]+0.091*[#   7]+0.091*[#  19]+0.091*[#  20]+0.024*[#   5]
          +0.024*[#  18]+0.012*[#  10]+0.012*[#  23]+0.001*[#   1]+0.001*[#  14]
          
    |psi|^2 = 0.442

 k =   0.0000000000  0.0577350269  0.1100933592
==== e(   1) =   -77.91059 eV ==== 
     psi = 0.454*[#   1]+0.454*[#  14]+0.031*[#  11]+0.031*[#  24]+0.006*[#  10]
          +0.006*[#  23]+0.004*[#  12]+0.004*[#  13]+0.004*[#  25]+0.004*[#  26]
          
    |psi|^2 = 1.000
==== e(   2) =   -77.86528 eV ==== 
     psi = 0.486*[#   1]+0.486*[#  14]+0.001*[#  10]+0.001*[#  23]+0.001*[#   5]
          +0.001*[#  18]
    |psi|^2 = 0.979
==== e(   3) =   -41.26907 eV ==== 
     psi = 0.011*[#  11]+0.011*[#  24]
    |psi|^2 = 0.024
==== e(   4) =   -41.02033 eV ==== 
     psi = 0.246*[#   3]+0.246*[#   4]+0.246*[#  16]+0.246*[#  17]+0.003*[#  12]
          +0.003*[#  13]+0.003*[#  25]+0.003*[#  26]
    |psi|^2 = 0.998
==== e(   5) =   -41.01669 eV ==== 
     psi = 0.246*[#   3]+0.246*[#   4]+0.246*[#  16]+0.246*[#  17]+0.004*[#  12]
          +0.004*[#  13]+0.004*[#  25]+0.004*[#  26]
    |psi|^2 = 1.000
==== e(   6) =   -41.00588 eV ==== 
     psi = 0.492*[#   2]+0.492*[#  15]+0.022*[#   3]+0.022*[#   4]+0.022*[#  16]
          +0.022*[#  17]+0.008*[#  11]+0.008*[#  24]+0.003*[#  10]+0.003*[#  23]
          
    |psi|^2 = 1.094
==== e(   7) =   -40.97965 eV ==== 
     psi = 0.450*[#   2]+0.450*[#  15]+0.224*[#   3]+0.224*[#   4]+0.224*[#  16]
          +0.224*[#  17]+0.004*[#  12]+0.004*[#  13]+0.004*[#  25]+0.004*[#  26]
          +0.003*[#  11]+0.003*[#  24]
    |psi|^2 = 1.817
==== e(   8) =   -40.97714 eV ==== 
     psi = 0.245*[#   3]+0.245*[#   4]+0.245*[#  16]+0.245*[#  17]+0.005*[#  12]
          +0.005*[#  13]+0.005*[#  25]+0.005*[#  26]
    |psi|^2 = 1.000
==== e(   9) =     9.74156 eV ==== 
     psi = 0.365*[#  10]+0.365*[#  23]+0.083*[#  11]+0.083*[#  24]+0.027*[#   1]
          +0.027*[#  14]+0.012*[#  12]+0.012*[#  13]+0.012*[#  25]+0.012*[#  26]
          
    |psi|^2 = 1.000
==== e(  10) =    13.09564 eV ==== 
     psi = 0.344*[#   5]+0.344*[#  18]+0.105*[#  10]+0.105*[#  23]+0.003*[#  12]
          +0.003*[#  13]+0.003*[#  25]+0.003*[#  26]+0.002*[#   1]+0.002*[#  14]
          
    |psi|^2 = 0.914
==== e(  11) =    15.48693 eV ==== 
     psi = 0.269*[#   5]+0.269*[#  18]+0.110*[#   8]+0.110*[#   9]+0.110*[#  21]
          +0.110*[#  22]+0.041*[#  11]+0.041*[#  24]+0.004*[#   6]+0.004*[#   7]
          +0.004*[#  19]+0.004*[#  20]
    |psi|^2 = 1.082
==== e(  12) =    15.61467 eV ==== 
     psi = 0.220*[#   5]+0.220*[#  18]+0.111*[#   8]+0.111*[#   9]+0.111*[#  21]
          +0.111*[#  22]+0.028*[#   6]+0.028*[#   7]+0.028*[#  19]+0.028*[#  20]
          
    |psi|^2 = 0.998
==== e(  13) =    15.62558 eV ==== 
     psi = 0.220*[#   8]+0.220*[#   9]+0.220*[#  21]+0.220*[#  22]+0.030*[#   6]
          +0.030*[#   7]+0.030*[#  19]+0.030*[#  20]
    |psi|^2 = 0.999
==== e(  14) =    15.83158 eV ==== 
     psi = 0.224*[#   8]+0.224*[#   9]+0.224*[#  21]+0.224*[#  22]+0.019*[#   6]
          +0.019*[#   7]+0.019*[#  19]+0.019*[#  20]+0.001*[#   5]+0.001*[#  18]
          +0.001*[#  10]+0.001*[#  23]
    |psi|^2 = 0.980
==== e(  15) =    15.91809 eV ==== 
     psi = 0.238*[#   8]+0.238*[#   9]+0.238*[#  21]+0.238*[#  22]+0.012*[#   6]
          +0.012*[#   7]+0.012*[#  19]+0.012*[#  20]+0.010*[#  11]+0.010*[#  24]
          
    |psi|^2 = 1.020
==== e(  16) =    16.46738 eV ==== 
     psi = 0.202*[#   6]+0.202*[#   7]+0.202*[#  19]+0.202*[#  20]+0.031*[#   8]
          +0.031*[#   9]+0.031*[#  21]+0.031*[#  22]+0.014*[#   5]+0.014*[#  18]
          
    |psi|^2 = 0.961
==== e(  17) =    16.48116 eV ==== 
     psi = 0.219*[#   6]+0.219*[#   7]+0.219*[#  19]+0.219*[#  20]+0.031*[#   8]
          +0.031*[#   9]+0.031*[#  21]+0.031*[#  22]
    |psi|^2 = 1.000
==== e(  18) =    16.64719 eV ==== 
     psi = 0.100*[#   6]+0.100*[#   7]+0.100*[#  19]+0.100*[#  20]+0.053*[#   5]
          +0.053*[#  18]+0.019*[#   8]+0.019*[#   9]+0.019*[#  21]+0.019*[#  22]
          +0.009*[#  10]+0.009*[#  23]+0.003*[#   1]+0.003*[#  14]
    |psi|^2 = 0.609
==== e(  19) =    17.39123 eV ==== 
     psi = 0.239*[#   6]+0.239*[#   7]+0.239*[#  19]+0.239*[#  20]+0.192*[#  11]
          +0.192*[#  24]+0.011*[#   8]+0.011*[#   9]+0.011*[#  21]+0.011*[#  22]
          +0.004*[#   2]+0.004*[#  15]
    |psi|^2 = 1.391
==== e(  20) =    17.87197 eV ==== 
     psi = 0.146*[#   6]+0.146*[#   7]+0.146*[#  19]+0.146*[#  20]+0.036*[#   5]
          +0.036*[#  18]+0.014*[#  10]+0.014*[#  23]+0.003*[#   8]+0.003*[#   9]
          +0.003*[#  21]+0.003*[#  22]+0.002*[#   1]+0.002*[#  14]
    |psi|^2 = 0.700

 k =   0.0000000000  0.0577350269  0.1541307028
==== e(   1) =   -77.90687 eV ==== 
     psi = 0.447*[#   1]+0.447*[#  14]+0.045*[#  11]+0.045*[#  24]+0.003*[#  12]
          +0.003*[#  13]+0.003*[#  25]+0.003*[#  26]+0.002*[#  10]+0.002*[#  23]
          
    |psi|^2 = 1.000
==== e(   2) =   -77.86902 eV ==== 
     psi = 0.477*[#   1]+0.477*[#  14]+0.001*[#  10]+0.001*[#  23]
    |psi|^2 = 0.961
==== e(   3) =   -41.24763 eV ==== 
     psi = 0.019*[#  11]+0.019*[#  24]
    |psi|^2 = 0.043
==== e(   4) =   -41.02794 eV ==== 
     psi = 0.013*[#   3]+0.013*[#   4]+0.013*[#  16]+0.013*[#  17]+0.004*[#  10]
          +0.004*[#  23]
    |psi|^2 = 0.060
==== e(   5) =   -41.01692 eV ==== 
     psi = 0.245*[#   3]+0.245*[#   4]+0.245*[#  16]+0.245*[#  17]+0.004*[#  12]
          +0.004*[#  13]+0.004*[#  25]+0.004*[#  26]+0.002*[#   2]+0.002*[#  15]
          
    |psi|^2 = 1.000
==== e(   6) =   -41.01344 eV ==== 
     psi = 0.246*[#   3]+0.246*[#   4]+0.246*[#  16]+0.246*[#  17]+0.004*[#  12]
          +0.004*[#  13]+0.004*[#  25]+0.004*[#  26]
    |psi|^2 = 1.000
==== e(   7) =   -40.98284 eV ==== 
     psi = 0.233*[#   3]+0.233*[#   4]+0.233*[#  16]+0.233*[#  17]+0.004*[#  12]
          +0.004*[#  13]+0.004*[#  25]+0.004*[#  26]
    |psi|^2 = 0.949
==== e(   8) =   -40.98039 eV ==== 
     psi = 0.492*[#   2]+0.492*[#  15]+0.245*[#   3]+0.245*[#   4]+0.245*[#  16]
          +0.245*[#  17]+0.008*[#  11]+0.008*[#  24]+0.005*[#  12]+0.005*[#  13]
          +0.005*[#  25]+0.005*[#  26]
    |psi|^2 = 2.000
==== e(   9) =    10.03758 eV ==== 
     psi = 0.316*[#  10]+0.316*[#  23]+0.134*[#  11]+0.134*[#  24]+0.029*[#   1]
          +0.029*[#  14]+0.010*[#  12]+0.010*[#  13]+0.010*[#  25]+0.010*[#  26]
          +0.001*[#   5]+0.001*[#  18]
    |psi|^2 = 1.000
==== e(  10) =    12.97487 eV ==== 
     psi = 0.282*[#   5]+0.282*[#  18]+0.118*[#  10]+0.118*[#  23]+0.005*[#   1]
          +0.005*[#  14]+0.003*[#  12]+0.003*[#  13]+0.003*[#  25]+0.003*[#  26]
          
    |psi|^2 = 0.824
==== e(  11) =    15.46213 eV ==== 
     psi = 0.413*[#   5]+0.413*[#  18]+0.086*[#  11]+0.086*[#  24]+0.041*[#   8]
          +0.041*[#   9]+0.041*[#  21]+0.041*[#  22]+0.002*[#   2]+0.002*[#  15]
          
    |psi|^2 = 1.168
==== e(  12) =    15.53789 eV ==== 
     psi = 0.172*[#   8]+0.172*[#   9]+0.172*[#  21]+0.172*[#  22]+0.073*[#   5]
          +0.073*[#  18]+0.041*[#   6]+0.041*[#   7]+0.041*[#  19]+0.041*[#  20]
          
    |psi|^2 = 0.998
==== e(  13) =    15.59290 eV ==== 
     psi = 0.210*[#   8]+0.210*[#   9]+0.210*[#  21]+0.210*[#  22]+0.039*[#   6]
          +0.039*[#   7]+0.039*[#  19]+0.039*[#  20]
    |psi|^2 = 0.999
==== e(  14) =    15.72395 eV ==== 
     psi = 0.189*[#   8]+0.189*[#   9]+0.189*[#  21]+0.189*[#  22]+0.033*[#   6]
          +0.033*[#   7]+0.033*[#  19]+0.033*[#  20]+0.018*[#   5]+0.018*[#  18]
          +0.003*[#  10]+0.003*[#  23]
    |psi|^2 = 0.935
==== e(  15) =    15.85248 eV ==== 
     psi = 0.230*[#   8]+0.230*[#   9]+0.230*[#  21]+0.230*[#  22]+0.031*[#  11]
          +0.031*[#  24]+0.019*[#   6]+0.019*[#   7]+0.019*[#  19]+0.019*[#  20]
          
    |psi|^2 = 1.063
==== e(  16) =    16.25299 eV ==== 
     psi = 0.127*[#   5]+0.127*[#  18]+0.051*[#   8]+0.051*[#   9]+0.051*[#  21]
          +0.051*[#  22]+0.026*[#   6]+0.026*[#   7]+0.026*[#  19]+0.026*[#  20]
          +0.013*[#  10]+0.013*[#  23]+0.005*[#   1]+0.005*[#  14]
    |psi|^2 = 0.597
==== e(  17) =    16.61598 eV ==== 
     psi = 0.210*[#   6]+0.210*[#   7]+0.210*[#  19]+0.210*[#  20]+0.040*[#   8]
          +0.040*[#   9]+0.040*[#  21]+0.040*[#  22]
    |psi|^2 = 1.000
==== e(  18) =    16.62861 eV ==== 
     psi = 0.207*[#   6]+0.207*[#   7]+0.207*[#  19]+0.207*[#  20]+0.036*[#   8]
          +0.036*[#   9]+0.036*[#  21]+0.036*[#  22]+0.011*[#   5]+0.011*[#  18]
          
    |psi|^2 = 0.994
==== e(  19) =    17.36066 eV ==== 
     psi = 0.231*[#   6]+0.231*[#   7]+0.231*[#  19]+0.231*[#  20]+0.019*[#   8]
          +0.019*[#   9]+0.019*[#  21]+0.019*[#  22]+0.003*[#  11]+0.003*[#  24]
          
    |psi|^2 = 1.007
==== e(  20) =    17.60117 eV ==== 
     psi = 0.192*[#   6]+0.192*[#   7]+0.192*[#  19]+0.192*[#  20]+0.028*[#   5]
          +0.028*[#  18]+0.010*[#   8]+0.010*[#   9]+0.010*[#  21]+0.010*[#  22]
          +0.009*[#  10]+0.009*[#  23]+0.001*[#   1]+0.001*[#  14]
    |psi|^2 = 0.886

 k =   0.0000000000  0.0577350269  0.1981680465
==== e(   1) =   -77.90219 eV ==== 
     psi = 0.443*[#   1]+0.443*[#  14]+0.052*[#  11]+0.052*[#  24]+0.002*[#  12]
          +0.002*[#  13]+0.002*[#  25]+0.002*[#  26]
    |psi|^2 = 1.000
==== e(   2) =   -77.87372 eV ==== 
     psi = 0.468*[#   1]+0.468*[#  14]+0.001*[#  10]+0.001*[#  23]
    |psi|^2 = 0.943
==== e(   3) =   -41.22070 eV ==== 
     psi = 0.029*[#  11]+0.029*[#  24]+0.002*[#  10]+0.002*[#  23]
    |psi|^2 = 0.064
==== e(   4) =   -41.05540 eV ==== 
     psi = 0.008*[#   3]+0.008*[#   4]+0.008*[#  16]+0.008*[#  17]+0.004*[#  10]
          +0.004*[#  23]
    |psi|^2 = 0.040
==== e(   5) =   -41.01271 eV ==== 
     psi = 0.245*[#   3]+0.245*[#   4]+0.245*[#  16]+0.245*[#  17]+0.004*[#  12]
          +0.004*[#  13]+0.004*[#  25]+0.004*[#  26]+0.002*[#   2]+0.002*[#  15]
          
    |psi|^2 = 1.000
==== e(   6) =   -41.00936 eV ==== 
     psi = 0.246*[#   3]+0.246*[#   4]+0.246*[#  16]+0.246*[#  17]+0.004*[#  12]
          +0.004*[#  13]+0.004*[#  25]+0.004*[#  26]
    |psi|^2 = 1.000
==== e(   7) =   -40.98701 eV ==== 
     psi = 0.238*[#   3]+0.238*[#   4]+0.238*[#  16]+0.238*[#  17]+0.004*[#  12]
          +0.004*[#  13]+0.004*[#  25]+0.004*[#  26]
    |psi|^2 = 0.969
==== e(   8) =   -40.98449 eV ==== 
     psi = 0.492*[#   2]+0.492*[#  15]+0.245*[#   3]+0.245*[#   4]+0.245*[#  16]
          +0.245*[#  17]+0.008*[#  11]+0.008*[#  24]+0.005*[#  12]+0.005*[#  13]
          +0.005*[#  25]+0.005*[#  26]
    |psi|^2 = 2.000
==== e(   9) =    10.41997 eV ==== 
     psi = 0.272*[#  10]+0.272*[#  23]+0.177*[#  11]+0.177*[#  24]+0.029*[#   1]
          +0.029*[#  14]+0.008*[#  12]+0.008*[#  13]+0.008*[#  25]+0.008*[#  26]
          +0.004*[#   5]+0.004*[#  18]+0.001*[#   2]+0.001*[#  15]
    |psi|^2 = 1.000
==== e(  10) =    12.74229 eV ==== 
     psi = 0.198*[#   5]+0.198*[#  18]+0.138*[#  10]+0.138*[#  23]+0.009*[#   1]
          +0.009*[#  14]+0.003*[#  12]+0.003*[#  13]+0.003*[#  25]+0.003*[#  26]
          
    |psi|^2 = 0.706
==== e(  11) =    15.39643 eV ==== 
     psi = 0.477*[#   5]+0.477*[#  18]+0.144*[#  11]+0.144*[#  24]+0.007*[#   6]
          +0.007*[#   7]+0.007*[#  19]+0.007*[#  20]+0.003*[#   2]+0.003*[#  15]
          
    |psi|^2 = 1.278
==== e(  12) =    15.51299 eV ==== 
     psi = 0.208*[#   8]+0.208*[#   9]+0.208*[#  21]+0.208*[#  22]+0.038*[#   6]
          +0.038*[#   7]+0.038*[#  19]+0.038*[#  20]+0.006*[#   5]+0.006*[#  18]
          
    |psi|^2 = 0.996
==== e(  13) =    15.55804 eV ==== 
     psi = 0.111*[#   5]+0.111*[#  18]+0.110*[#   8]+0.110*[#   9]+0.110*[#  21]
          +0.110*[#  22]+0.077*[#  11]+0.077*[#  24]+0.041*[#   6]+0.041*[#   7]
          +0.041*[#  19]+0.041*[#  20]+0.006*[#  10]+0.006*[#  23]+0.003*[#   1]
          +0.003*[#  14]+0.001*[#   2]+0.001*[#  15]
    |psi|^2 = 0.999
==== e(  14) =    15.57693 eV ==== 
     psi = 0.206*[#   8]+0.206*[#   9]+0.206*[#  21]+0.206*[#  22]+0.044*[#   6]
          +0.044*[#   7]+0.044*[#  19]+0.044*[#  20]
    |psi|^2 = 0.999
==== e(  15) =    15.78081 eV ==== 
     psi = 0.222*[#   8]+0.222*[#   9]+0.222*[#  21]+0.222*[#  22]+0.027*[#   6]
          +0.027*[#   7]+0.027*[#  19]+0.027*[#  20]
    |psi|^2 = 0.999
==== e(  16) =    15.92678 eV ==== 
     psi = 0.140*[#   5]+0.140*[#  18]+0.122*[#   8]+0.122*[#   9]+0.122*[#  21]
          +0.122*[#  22]+0.008*[#  10]+0.008*[#  23]+0.004*[#   1]+0.004*[#  14]
          
    |psi|^2 = 0.792
==== e(  17) =    16.75907 eV ==== 
     psi = 0.205*[#   6]+0.205*[#   7]+0.205*[#  19]+0.205*[#  20]+0.044*[#   8]
          +0.044*[#   9]+0.044*[#  21]+0.044*[#  22]
    |psi|^2 = 1.000
==== e(  18) =    16.77370 eV ==== 
     psi = 0.204*[#   6]+0.204*[#   7]+0.204*[#  19]+0.204*[#  20]+0.040*[#   8]
          +0.040*[#   9]+0.040*[#  21]+0.040*[#  22]+0.009*[#   5]+0.009*[#  18]
          
    |psi|^2 = 0.999
==== e(  19) =    17.31097 eV ==== 
     psi = 0.223*[#   6]+0.223*[#   7]+0.223*[#  19]+0.223*[#  20]+0.027*[#   8]
          +0.027*[#   9]+0.027*[#  21]+0.027*[#  22]
    |psi|^2 = 1.002
==== e(  20) =    17.43925 eV ==== 
     psi = 0.208*[#   6]+0.208*[#   7]+0.208*[#  19]+0.208*[#  20]+0.019*[#   8]
          +0.019*[#   9]+0.019*[#  21]+0.019*[#  22]+0.018*[#   5]+0.018*[#  18]
          +0.005*[#  10]+0.005*[#  23]
    |psi|^2 = 0.958

 k =   0.0000000000  0.0577350269  0.2422053902
==== e(   1) =   -77.89680 eV ==== 
     psi = 0.442*[#   1]+0.442*[#  14]+0.054*[#  11]+0.054*[#  24]+0.002*[#  12]
          +0.002*[#  13]+0.002*[#  25]+0.002*[#  26]
    |psi|^2 = 1.000
==== e(   2) =   -77.87912 eV ==== 
     psi = 0.459*[#   1]+0.459*[#  14]+0.001*[#  10]+0.001*[#  23]
    |psi|^2 = 0.925
==== e(   3) =   -41.18958 eV ==== 
     psi = 0.038*[#  11]+0.038*[#  24]+0.002*[#  10]+0.002*[#  23]+0.001*[#   3]
          +0.001*[#   4]+0.001*[#  16]+0.001*[#  17]
    |psi|^2 = 0.085
==== e(   4) =   -41.08693 eV ==== 
     psi = 0.005*[#   3]+0.005*[#   4]+0.005*[#  16]+0.005*[#  17]+0.004*[#  10]
          +0.004*[#  23]
    |psi|^2 = 0.028
==== e(   5) =   -41.00783 eV ==== 
     psi = 0.245*[#   3]+0.245*[#   4]+0.245*[#  16]+0.245*[#  17]+0.004*[#  12]
          +0.004*[#  13]+0.004*[#  25]+0.004*[#  26]+0.003*[#   2]+0.003*[#  15]
          
    |psi|^2 = 1.000
==== e(   6) =   -41.00466 eV ==== 
     psi = 0.246*[#   3]+0.246*[#   4]+0.246*[#  16]+0.246*[#  17]+0.004*[#  12]
          +0.004*[#  13]+0.004*[#  25]+0.004*[#  26]
    |psi|^2 = 1.000
==== e(   7) =   -40.99185 eV ==== 
     psi = 0.241*[#   3]+0.241*[#   4]+0.241*[#  16]+0.241*[#  17]+0.004*[#  12]
          +0.004*[#  13]+0.004*[#  25]+0.004*[#  26]
    |psi|^2 = 0.980
==== e(   8) =   -40.98919 eV ==== 
     psi = 0.492*[#   2]+0.492*[#  15]+0.246*[#   3]+0.246*[#   4]+0.246*[#  16]
          +0.246*[#  17]+0.008*[#  11]+0.008*[#  24]+0.004*[#  12]+0.004*[#  13]
          +0.004*[#  25]+0.004*[#  26]
    |psi|^2 = 2.000
==== e(   9) =    10.87501 eV ==== 
     psi = 0.235*[#  10]+0.235*[#  23]+0.209*[#  11]+0.209*[#  24]+0.028*[#   1]
          +0.028*[#  14]+0.011*[#   5]+0.011*[#  18]+0.006*[#  12]+0.006*[#  13]
          +0.006*[#  25]+0.006*[#  26]+0.002*[#   2]+0.002*[#  15]
    |psi|^2 = 1.000
==== e(  10) =    12.37353 eV ==== 
     psi = 0.160*[#  10]+0.160*[#  23]+0.115*[#   5]+0.115*[#  18]+0.015*[#   1]
          +0.015*[#  14]+0.004*[#  12]+0.004*[#  13]+0.004*[#  25]+0.004*[#  26]
          
    |psi|^2 = 0.599
==== e(  11) =    15.31746 eV ==== 
     psi = 0.444*[#   5]+0.444*[#  18]+0.197*[#  11]+0.197*[#  24]+0.013*[#   6]
          +0.013*[#   7]+0.013*[#  19]+0.013*[#  20]+0.008*[#   8]+0.008*[#   9]
          +0.008*[#  21]+0.008*[#  22]+0.004*[#   2]+0.004*[#  15]
    |psi|^2 = 1.372
==== e(  12) =    15.37162 eV ==== 
     psi = 0.262*[#   5]+0.262*[#  18]+0.043*[#   8]+0.043*[#   9]+0.043*[#  21]
          +0.043*[#  22]+0.030*[#   6]+0.030*[#   7]+0.030*[#  19]+0.030*[#  20]
          +0.005*[#  10]+0.005*[#  23]+0.004*[#   1]+0.004*[#  14]
    |psi|^2 = 0.836
==== e(  13) =    15.53162 eV ==== 
     psi = 0.202*[#   8]+0.202*[#   9]+0.202*[#  21]+0.202*[#  22]+0.032*[#   6]
          +0.032*[#   7]+0.032*[#  19]+0.032*[#  20]+0.029*[#   5]+0.029*[#  18]
          +0.002*[#  11]+0.002*[#  24]
    |psi|^2 = 0.999
==== e(  14) =    15.58151 eV ==== 
     psi = 0.205*[#   8]+0.205*[#   9]+0.205*[#  21]+0.205*[#  22]+0.045*[#   6]
          +0.045*[#   7]+0.045*[#  19]+0.045*[#  20]
    |psi|^2 = 0.999
==== e(  15) =    15.71152 eV ==== 
     psi = 0.216*[#   8]+0.216*[#   9]+0.216*[#  21]+0.216*[#  22]+0.034*[#   6]
          +0.034*[#   7]+0.034*[#  19]+0.034*[#  20]
    |psi|^2 = 0.999
==== e(  16) =    15.74777 eV ==== 
     psi = 0.179*[#   8]+0.179*[#   9]+0.179*[#  21]+0.179*[#  22]+0.088*[#   5]
          +0.088*[#  18]+0.009*[#   6]+0.009*[#   7]+0.009*[#  19]+0.009*[#  20]
          +0.002*[#  10]+0.002*[#  23]+0.002*[#   1]+0.002*[#  14]
    |psi|^2 = 0.935
==== e(  17) =    16.90007 eV ==== 
     psi = 0.204*[#   6]+0.204*[#   7]+0.204*[#  19]+0.204*[#  20]+0.045*[#   8]
          +0.045*[#   9]+0.045*[#  21]+0.045*[#  22]
    |psi|^2 = 1.000
==== e(  18) =    16.92104 eV ==== 
     psi = 0.204*[#   6]+0.204*[#   7]+0.204*[#  19]+0.204*[#  20]+0.040*[#   8]
          +0.040*[#   9]+0.040*[#  21]+0.040*[#  22]+0.009*[#   5]+0.009*[#  18]
          
    |psi|^2 = 0.998
==== e(  19) =    17.23931 eV ==== 
     psi = 0.216*[#   6]+0.216*[#   7]+0.216*[#  19]+0.216*[#  20]+0.034*[#   8]
          +0.034*[#   9]+0.034*[#  21]+0.034*[#  22]+0.001*[#  11]+0.001*[#  24]
          
    |psi|^2 = 1.002
==== e(  20) =    17.31443 eV ==== 
     psi = 0.210*[#   6]+0.210*[#   7]+0.210*[#  19]+0.210*[#  20]+0.027*[#   8]
          +0.027*[#   9]+0.027*[#  21]+0.027*[#  22]+0.013*[#   5]+0.013*[#  18]
          +0.002*[#  10]+0.002*[#  23]
    |psi|^2 = 0.982

 k =   0.0000000000  0.0577350269  0.2862427338
==== e(   1) =   -77.89096 eV ==== 
     psi = 0.445*[#   1]+0.445*[#  14]+0.051*[#  11]+0.051*[#  24]+0.001*[#  12]
          +0.001*[#  13]+0.001*[#  25]+0.001*[#  26]
    |psi|^2 = 1.000
==== e(   2) =   -77.88497 eV ==== 
     psi = 0.451*[#   1]+0.451*[#  14]+0.001*[#  12]+0.001*[#  13]+0.001*[#  25]
          +0.001*[#  26]
    |psi|^2 = 0.909
==== e(   3) =   -41.15577 eV ==== 
     psi = 0.046*[#  11]+0.046*[#  24]+0.003*[#  10]+0.003*[#  23]+0.002*[#   3]
          +0.002*[#   4]+0.002*[#  16]+0.002*[#  17]
    |psi|^2 = 0.106
==== e(   4) =   -41.12094 eV ==== 
     psi = 0.004*[#  10]+0.004*[#  23]+0.003*[#   3]+0.003*[#   4]+0.003*[#  16]
          +0.003*[#  17]
    |psi|^2 = 0.020
==== e(   5) =   -41.00252 eV ==== 
     psi = 0.244*[#   3]+0.244*[#   4]+0.244*[#  16]+0.244*[#  17]+0.004*[#   2]
          +0.004*[#  15]+0.004*[#  12]+0.004*[#  13]+0.004*[#  25]+0.004*[#  26]
          
    |psi|^2 = 1.000
==== e(   6) =   -40.99955 eV ==== 
     psi = 0.246*[#   3]+0.246*[#   4]+0.246*[#  16]+0.246*[#  17]+0.004*[#  12]
          +0.004*[#  13]+0.004*[#  25]+0.004*[#  26]
    |psi|^2 = 1.000
==== e(   7) =   -40.99711 eV ==== 
     psi = 0.243*[#   3]+0.243*[#   4]+0.243*[#  16]+0.243*[#  17]+0.004*[#  12]
          +0.004*[#  13]+0.004*[#  25]+0.004*[#  26]
    |psi|^2 = 0.987
==== e(   8) =   -40.99430 eV ==== 
     psi = 0.491*[#   2]+0.491*[#  15]+0.246*[#   3]+0.246*[#   4]+0.246*[#  16]
          +0.246*[#  17]+0.009*[#  11]+0.009*[#  24]+0.004*[#  12]+0.004*[#  13]
          +0.004*[#  25]+0.004*[#  26]
    |psi|^2 = 2.000
==== e(   9) =    11.38017 eV ==== 
     psi = 0.227*[#  11]+0.227*[#  24]+0.206*[#  10]+0.206*[#  23]+0.026*[#   5]
          +0.026*[#  18]+0.025*[#   1]+0.025*[#  14]+0.005*[#  12]+0.005*[#  13]
          +0.005*[#  25]+0.005*[#  26]+0.003*[#   2]+0.003*[#  15]
    |psi|^2 = 1.000
==== e(  10) =    11.89839 eV ==== 
     psi = 0.182*[#  10]+0.182*[#  23]+0.058*[#   5]+0.058*[#  18]+0.021*[#   1]
          +0.021*[#  14]+0.004*[#  12]+0.004*[#  13]+0.004*[#  25]+0.004*[#  26]
          
    |psi|^2 = 0.542
==== e(  11) =    15.26507 eV ==== 
     psi = 0.410*[#   5]+0.410*[#  18]+0.225*[#  11]+0.225*[#  24]+0.017*[#   6]
          +0.017*[#   7]+0.017*[#  19]+0.017*[#  20]+0.014*[#   8]+0.014*[#   9]
          +0.014*[#  21]+0.014*[#  22]+0.004*[#   2]+0.004*[#  15]+0.002*[#   1]
          +0.002*[#  14]
    |psi|^2 = 1.402
==== e(  12) =    15.27170 eV ==== 
     psi = 0.358*[#   5]+0.358*[#  18]+0.022*[#   8]+0.022*[#   9]+0.022*[#  21]
          +0.022*[#  22]+0.021*[#   6]+0.021*[#   7]+0.021*[#  19]+0.021*[#  20]
          +0.003*[#   1]+0.003*[#  14]+0.002*[#  10]+0.002*[#  23]
    |psi|^2 = 0.898
==== e(  13) =    15.57548 eV ==== 
     psi = 0.198*[#   8]+0.198*[#   9]+0.198*[#  21]+0.198*[#  22]+0.044*[#   5]
          +0.044*[#  18]+0.027*[#   6]+0.027*[#   7]+0.027*[#  19]+0.027*[#  20]
          +0.004*[#  11]+0.004*[#  24]
    |psi|^2 = 0.999
==== e(  14) =    15.60710 eV ==== 
     psi = 0.206*[#   8]+0.206*[#   9]+0.206*[#  21]+0.206*[#  22]+0.043*[#   6]
          +0.043*[#   7]+0.043*[#  19]+0.043*[#  20]
    |psi|^2 = 0.999
==== e(  15) =    15.64466 eV ==== 
     psi = 0.194*[#   8]+0.194*[#   9]+0.194*[#  21]+0.194*[#  22]+0.059*[#   5]
          +0.059*[#  18]+0.020*[#   6]+0.020*[#   7]+0.020*[#  19]+0.020*[#  20]
          
    |psi|^2 = 0.976
==== e(  16) =    15.65173 eV ==== 
     psi = 0.210*[#   8]+0.210*[#   9]+0.210*[#  21]+0.210*[#  22]+0.040*[#   6]
          +0.040*[#   7]+0.040*[#  19]+0.040*[#  20]
    |psi|^2 = 0.999
==== e(  17) =    17.03083 eV ==== 
     psi = 0.206*[#   6]+0.206*[#   7]+0.206*[#  19]+0.206*[#  20]+0.043*[#   8]
          +0.043*[#   9]+0.043*[#  21]+0.043*[#  22]
    |psi|^2 = 1.000
==== e(  18) =    17.06190 eV ==== 
     psi = 0.205*[#   6]+0.205*[#   7]+0.205*[#  19]+0.205*[#  20]+0.038*[#   8]
          +0.038*[#   9]+0.038*[#  21]+0.038*[#  22]+0.009*[#   5]+0.009*[#  18]
          
    |psi|^2 = 0.996
==== e(  19) =    17.14523 eV ==== 
     psi = 0.210*[#   6]+0.210*[#   7]+0.210*[#  19]+0.210*[#  20]+0.040*[#   8]
          +0.040*[#   9]+0.040*[#  21]+0.040*[#  22]+0.002*[#  11]+0.002*[#  24]
          
    |psi|^2 = 1.004
==== e(  20) =    17.19255 eV ==== 
     psi = 0.208*[#   6]+0.208*[#   7]+0.208*[#  19]+0.208*[#  20]+0.034*[#   8]
          +0.034*[#   9]+0.034*[#  21]+0.034*[#  22]+0.011*[#   5]+0.011*[#  18]
          +0.001*[#  10]+0.001*[#  23]
    |psi|^2 = 0.992

 k =   0.0000000000  0.1154700538  0.0220186718
==== e(   1) =   -77.91124 eV ==== 
     psi = 0.456*[#   1]+0.456*[#  14]+0.018*[#  12]+0.018*[#  13]+0.018*[#  25]
          +0.018*[#  26]+0.007*[#  10]+0.007*[#  23]+0.001*[#  11]+0.001*[#  24]
          
    |psi|^2 = 1.000
==== e(   2) =   -77.85981 eV ==== 
     psi = 0.493*[#   1]+0.493*[#  14]+0.002*[#  12]+0.002*[#  13]+0.002*[#  25]
          +0.002*[#  26]+0.002*[#  10]+0.002*[#  23]+0.001*[#   5]+0.001*[#  18]
          
    |psi|^2 = 0.999
==== e(   3) =   -41.28425 eV ==== 

    |psi|^2 = 0.001
==== e(   4) =   -41.04008 eV ==== 
     psi = 0.247*[#   3]+0.247*[#   4]+0.247*[#  16]+0.247*[#  17]+0.002*[#  12]
          +0.002*[#  13]+0.002*[#  25]+0.002*[#  26]
    |psi|^2 = 1.000
==== e(   5) =   -41.02535 eV ==== 
     psi = 0.247*[#   3]+0.247*[#   4]+0.247*[#  16]+0.247*[#  17]+0.003*[#  12]
          +0.003*[#  13]+0.003*[#  25]+0.003*[#  26]
    |psi|^2 = 1.000
==== e(   6) =   -40.99616 eV ==== 
     psi = 0.493*[#   2]+0.493*[#  15]+0.233*[#   3]+0.233*[#   4]+0.233*[#  16]
          +0.233*[#  17]+0.007*[#  11]+0.007*[#  24]+0.003*[#  10]+0.003*[#  23]
          +0.002*[#  12]+0.002*[#  13]+0.002*[#  25]+0.002*[#  26]
    |psi|^2 = 1.946
==== e(   7) =   -40.98255 eV ==== 
     psi = 0.027*[#   2]+0.027*[#  15]+0.013*[#   3]+0.013*[#   4]+0.013*[#  16]
          +0.013*[#  17]
    |psi|^2 = 0.108
==== e(   8) =   -40.97648 eV ==== 
     psi = 0.245*[#   3]+0.245*[#   4]+0.245*[#  16]+0.245*[#  17]+0.005*[#  12]
          +0.005*[#  13]+0.005*[#  25]+0.005*[#  26]
    |psi|^2 = 1.000
==== e(   9) =     9.69882 eV ==== 
     psi = 0.374*[#  10]+0.374*[#  23]+0.047*[#  12]+0.047*[#  13]+0.047*[#  25]
          +0.047*[#  26]+0.027*[#   1]+0.027*[#  14]+0.003*[#  11]+0.003*[#  24]
          
    |psi|^2 = 1.000
==== e(  10) =    13.32127 eV ==== 
     psi = 0.397*[#   5]+0.397*[#  18]+0.080*[#  10]+0.080*[#  23]+0.008*[#  12]
          +0.008*[#  13]+0.008*[#  25]+0.008*[#  26]+0.002*[#   8]+0.002*[#   9]
          +0.002*[#  21]+0.002*[#  22]
    |psi|^2 = 0.996
==== e(  11) =    15.36840 eV ==== 
     psi = 0.166*[#   8]+0.166*[#   9]+0.166*[#  21]+0.166*[#  22]+0.165*[#   5]
          +0.165*[#  18]+0.001*[#  11]+0.001*[#  24]
    |psi|^2 = 1.001
==== e(  12) =    15.81380 eV ==== 
     psi = 0.245*[#   8]+0.245*[#   9]+0.245*[#  21]+0.245*[#  22]+0.004*[#   6]
          +0.004*[#   7]+0.004*[#  19]+0.004*[#  20]
    |psi|^2 = 0.999
==== e(  13) =    15.82896 eV ==== 
     psi = 0.210*[#   5]+0.210*[#  18]+0.141*[#   8]+0.141*[#   9]+0.141*[#  21]
          +0.141*[#  22]+0.003*[#   6]+0.003*[#   7]+0.003*[#  19]+0.003*[#  20]
          
    |psi|^2 = 0.999
==== e(  14) =    15.89562 eV ==== 
     psi = 0.166*[#   8]+0.166*[#   9]+0.166*[#  21]+0.166*[#  22]+0.106*[#   5]
          +0.106*[#  18]+0.027*[#   6]+0.027*[#   7]+0.027*[#  19]+0.027*[#  20]
          +0.001*[#  10]+0.001*[#  23]
    |psi|^2 = 0.986
==== e(  15) =    16.08920 eV ==== 
     psi = 0.198*[#   6]+0.198*[#   7]+0.198*[#  19]+0.198*[#  20]+0.021*[#   5]
          +0.021*[#  18]+0.021*[#   8]+0.021*[#   9]+0.021*[#  21]+0.021*[#  22]
          +0.006*[#  11]+0.006*[#  24]
    |psi|^2 = 0.931
==== e(  16) =    16.10269 eV ==== 
     psi = 0.245*[#   8]+0.245*[#   9]+0.245*[#  21]+0.245*[#  22]+0.004*[#   6]
          +0.004*[#   7]+0.004*[#  19]+0.004*[#  20]
    |psi|^2 = 0.999
==== e(  17) =    16.23325 eV ==== 
     psi = 0.242*[#   6]+0.242*[#   7]+0.242*[#  19]+0.242*[#  20]+0.008*[#   8]
          +0.008*[#   9]+0.008*[#  21]+0.008*[#  22]
    |psi|^2 = 0.999
==== e(  18) =    16.51118 eV ==== 
     psi = 0.193*[#   6]+0.193*[#   7]+0.193*[#  19]+0.193*[#  20]+0.002*[#   8]
          +0.002*[#   9]+0.002*[#  21]+0.002*[#  22]+0.002*[#   5]+0.002*[#  18]
          
    |psi|^2 = 0.786
==== e(  19) =    17.44292 eV ==== 
     psi = 0.249*[#   6]+0.249*[#   7]+0.249*[#  19]+0.249*[#  20]+0.105*[#  11]
          +0.105*[#  24]+0.002*[#   2]+0.002*[#  15]
    |psi|^2 = 1.213
==== e(  20) =    19.44379 eV ==== 
     psi = 0.078*[#   6]+0.078*[#   7]+0.078*[#  19]+0.078*[#  20]+0.003*[#   5]
          +0.003*[#  18]+0.003*[#  10]+0.003*[#  23]
    |psi|^2 = 0.325

 k =   0.0000000000  0.1154700538  0.0660560155
==== e(   1) =   -77.90995 eV ==== 
     psi = 0.453*[#   1]+0.453*[#  14]+0.016*[#  12]+0.016*[#  13]+0.016*[#  25]
          +0.016*[#  26]+0.011*[#  11]+0.011*[#  24]+0.005*[#  10]+0.005*[#  23]
          
    |psi|^2 = 1.000
==== e(   2) =   -77.86110 eV ==== 
     psi = 0.489*[#   1]+0.489*[#  14]+0.002*[#  12]+0.002*[#  13]+0.002*[#  25]
          +0.002*[#  26]+0.002*[#  10]+0.002*[#  23]
    |psi|^2 = 0.993
==== e(   3) =   -41.27715 eV ==== 
     psi = 0.004*[#  11]+0.004*[#  24]
    |psi|^2 = 0.009
==== e(   4) =   -41.03868 eV ==== 
     psi = 0.247*[#   3]+0.247*[#   4]+0.247*[#  16]+0.247*[#  17]+0.002*[#  12]
          +0.002*[#  13]+0.002*[#  25]+0.002*[#  26]
    |psi|^2 = 0.998
==== e(   5) =   -41.02415 eV ==== 
     psi = 0.247*[#   3]+0.247*[#   4]+0.247*[#  16]+0.247*[#  17]+0.003*[#  12]
          +0.003*[#  13]+0.003*[#  25]+0.003*[#  26]
    |psi|^2 = 1.000
==== e(   6) =   -41.00324 eV ==== 
     psi = 0.493*[#   2]+0.493*[#  15]+0.160*[#   3]+0.160*[#   4]+0.160*[#  16]
          +0.160*[#  17]+0.007*[#  11]+0.007*[#  24]+0.003*[#  10]+0.003*[#  23]
          
    |psi|^2 = 1.650
==== e(   7) =   -40.98421 eV ==== 
     psi = 0.174*[#   2]+0.174*[#  15]+0.087*[#   3]+0.087*[#   4]+0.087*[#  16]
          +0.087*[#  17]+0.001*[#  11]+0.001*[#  12]+0.001*[#  13]+0.001*[#  24]
          +0.001*[#  25]+0.001*[#  26]
    |psi|^2 = 0.702
==== e(   8) =   -40.97771 eV ==== 
     psi = 0.245*[#   3]+0.245*[#   4]+0.245*[#  16]+0.245*[#  17]+0.005*[#  12]
          +0.005*[#  13]+0.005*[#  25]+0.005*[#  26]
    |psi|^2 = 1.000
==== e(   9) =     9.79884 eV ==== 
     psi = 0.354*[#  10]+0.354*[#  23]+0.044*[#  12]+0.044*[#  13]+0.044*[#  25]
          +0.044*[#  26]+0.029*[#  11]+0.029*[#  24]+0.028*[#   1]+0.028*[#  14]
          
    |psi|^2 = 1.000
==== e(  10) =    13.30820 eV ==== 
     psi = 0.381*[#   5]+0.381*[#  18]+0.084*[#  10]+0.084*[#  23]+0.008*[#  12]
          +0.008*[#  13]+0.008*[#  25]+0.008*[#  26]+0.002*[#   8]+0.002*[#   9]
          +0.002*[#  21]+0.002*[#  22]+0.001*[#   1]+0.001*[#  14]
    |psi|^2 = 0.973
==== e(  11) =    15.37039 eV ==== 
     psi = 0.166*[#   8]+0.166*[#   9]+0.166*[#  21]+0.166*[#  22]+0.161*[#   5]
          +0.161*[#  18]+0.013*[#  11]+0.013*[#  24]+0.002*[#   6]+0.002*[#   7]
          +0.002*[#  19]+0.002*[#  20]
    |psi|^2 = 1.024
==== e(  12) =    15.75609 eV ==== 
     psi = 0.293*[#   5]+0.293*[#  18]+0.064*[#   8]+0.064*[#   9]+0.064*[#  21]
          +0.064*[#  22]+0.039*[#   6]+0.039*[#   7]+0.039*[#  19]+0.039*[#  20]
          
    |psi|^2 = 0.997
==== e(  13) =    15.77370 eV ==== 
     psi = 0.223*[#   8]+0.223*[#   9]+0.223*[#  21]+0.223*[#  22]+0.026*[#   6]
          +0.026*[#   7]+0.026*[#  19]+0.026*[#  20]
    |psi|^2 = 0.999
==== e(  14) =    15.78523 eV ==== 
     psi = 0.192*[#   8]+0.192*[#   9]+0.192*[#  21]+0.192*[#  22]+0.042*[#   6]
          +0.042*[#   7]+0.042*[#  19]+0.042*[#  20]+0.003*[#  10]+0.003*[#  23]
          
    |psi|^2 = 0.947
==== e(  15) =    16.06988 eV ==== 
     psi = 0.238*[#   8]+0.238*[#   9]+0.238*[#  21]+0.238*[#  22]+0.026*[#  11]
          +0.026*[#  24]+0.012*[#   6]+0.012*[#   7]+0.012*[#  19]+0.012*[#  20]
          
    |psi|^2 = 1.053
==== e(  16) =    16.18150 eV ==== 
     psi = 0.139*[#   6]+0.139*[#   7]+0.139*[#  19]+0.139*[#  20]+0.059*[#   8]
          +0.059*[#   9]+0.059*[#  21]+0.059*[#  22]+0.047*[#   5]+0.047*[#  18]
          
    |psi|^2 = 0.889
==== e(  17) =    16.31679 eV ==== 
     psi = 0.217*[#   6]+0.217*[#   7]+0.217*[#  19]+0.217*[#  20]+0.033*[#   8]
          +0.033*[#   9]+0.033*[#  21]+0.033*[#  22]
    |psi|^2 = 0.999
==== e(  18) =    16.49219 eV ==== 
     psi = 0.185*[#   6]+0.185*[#   7]+0.185*[#  19]+0.185*[#  20]+0.016*[#   5]
          +0.016*[#  18]+0.015*[#   8]+0.015*[#   9]+0.015*[#  21]+0.015*[#  22]
          +0.001*[#  10]+0.001*[#  23]
    |psi|^2 = 0.833
==== e(  19) =    17.43358 eV ==== 
     psi = 0.245*[#   6]+0.245*[#   7]+0.245*[#  19]+0.245*[#  20]+0.082*[#  11]
          +0.082*[#  24]+0.005*[#   8]+0.005*[#   9]+0.005*[#  21]+0.005*[#  22]
          +0.002*[#   2]+0.002*[#  15]
    |psi|^2 = 1.167
==== e(  20) =    19.06243 eV ==== 
     psi = 0.091*[#   6]+0.091*[#   7]+0.091*[#  19]+0.091*[#  20]+0.024*[#   5]
          +0.024*[#  18]+0.017*[#  10]+0.017*[#  23]+0.001*[#   1]+0.001*[#  12]
          +0.001*[#  13]+0.001*[#  14]+0.001*[#  25]+0.001*[#  26]
    |psi|^2 = 0.455

 k =   0.0000000000  0.1154700538  0.1100933592
==== e(   1) =   -77.90745 eV ==== 
     psi = 0.447*[#   1]+0.447*[#  14]+0.024*[#  11]+0.024*[#  24]+0.013*[#  12]
          +0.013*[#  13]+0.013*[#  25]+0.013*[#  26]+0.002*[#  10]+0.002*[#  23]
          
    |psi|^2 = 1.000
==== e(   2) =   -77.86362 eV ==== 
     psi = 0.483*[#   1]+0.483*[#  14]+0.002*[#  12]+0.002*[#  13]+0.002*[#  25]
          +0.002*[#  26]+0.002*[#  10]+0.002*[#  23]
    |psi|^2 = 0.981
==== e(   3) =   -41.26319 eV ==== 
     psi = 0.010*[#  11]+0.010*[#  24]
    |psi|^2 = 0.025
==== e(   4) =   -41.03599 eV ==== 
     psi = 0.245*[#   3]+0.245*[#   4]+0.245*[#  16]+0.245*[#  17]+0.002*[#  12]
          +0.002*[#  13]+0.002*[#  25]+0.002*[#  26]
    |psi|^2 = 0.992
==== e(   5) =   -41.02176 eV ==== 
     psi = 0.246*[#   3]+0.246*[#   4]+0.246*[#  16]+0.246*[#  17]+0.004*[#  12]
          +0.004*[#  13]+0.004*[#  25]+0.004*[#  26]
    |psi|^2 = 1.000
==== e(   6) =   -41.01722 eV ==== 
     psi = 0.493*[#   2]+0.493*[#  15]+0.096*[#   3]+0.096*[#   4]+0.096*[#  16]
          +0.096*[#  17]+0.007*[#  11]+0.007*[#  24]+0.004*[#  10]+0.004*[#  23]
          
    |psi|^2 = 1.392
==== e(   7) =   -40.98720 eV ==== 
     psi = 0.303*[#   2]+0.303*[#  15]+0.152*[#   3]+0.152*[#   4]+0.152*[#  16]
          +0.152*[#  17]+0.002*[#  12]+0.002*[#  13]+0.002*[#  25]+0.002*[#  26]
          +0.001*[#  11]+0.001*[#  24]
    |psi|^2 = 1.224
==== e(   8) =   -40.98011 eV ==== 
     psi = 0.245*[#   3]+0.245*[#   4]+0.245*[#  16]+0.245*[#  17]+0.005*[#  12]
          +0.005*[#  13]+0.005*[#  25]+0.005*[#  26]
    |psi|^2 = 1.000
==== e(   9) =     9.99665 eV ==== 
     psi = 0.321*[#  10]+0.321*[#  23]+0.070*[#  11]+0.070*[#  24]+0.039*[#  12]
          +0.039*[#  13]+0.039*[#  25]+0.039*[#  26]+0.029*[#   1]+0.029*[#  14]
          
    |psi|^2 = 1.000
==== e(  10) =    13.26615 eV ==== 
     psi = 0.345*[#   5]+0.345*[#  18]+0.092*[#  10]+0.092*[#  23]+0.009*[#  12]
          +0.009*[#  13]+0.009*[#  25]+0.009*[#  26]+0.002*[#   1]+0.002*[#  14]
          +0.002*[#   8]+0.002*[#   9]+0.002*[#  21]+0.002*[#  22]
    |psi|^2 = 0.921
==== e(  11) =    15.37773 eV ==== 
     psi = 0.166*[#   8]+0.166*[#   9]+0.166*[#  21]+0.166*[#  22]+0.156*[#   5]
          +0.156*[#  18]+0.038*[#  11]+0.038*[#  24]+0.005*[#   6]+0.005*[#   7]
          +0.005*[#  19]+0.005*[#  20]
    |psi|^2 = 1.075
==== e(  12) =    15.62358 eV ==== 
     psi = 0.157*[#   5]+0.157*[#  18]+0.078*[#   8]+0.078*[#   9]+0.078*[#  21]
          +0.078*[#  22]+0.075*[#   6]+0.075*[#   7]+0.075*[#  19]+0.075*[#  20]
          +0.003*[#  10]+0.003*[#  23]
    |psi|^2 = 0.933
==== e(  13) =    15.65417 eV ==== 
     psi = 0.151*[#   5]+0.151*[#  18]+0.129*[#   8]+0.129*[#   9]+0.129*[#  21]
          +0.129*[#  22]+0.032*[#   6]+0.032*[#   7]+0.032*[#  19]+0.032*[#  20]
          +0.023*[#  11]+0.023*[#  24]+0.002*[#  10]+0.002*[#  23]
    |psi|^2 = 0.999
==== e(  14) =    15.72496 eV ==== 
     psi = 0.206*[#   8]+0.206*[#   9]+0.206*[#  21]+0.206*[#  22]+0.043*[#   6]
          +0.043*[#   7]+0.043*[#  19]+0.043*[#  20]
    |psi|^2 = 0.999
==== e(  15) =    16.01756 eV ==== 
     psi = 0.233*[#   8]+0.233*[#   9]+0.233*[#  21]+0.233*[#  22]+0.016*[#   6]
          +0.016*[#   7]+0.016*[#  19]+0.016*[#  20]
    |psi|^2 = 0.999
==== e(  16) =    16.19288 eV ==== 
     psi = 0.096*[#   8]+0.096*[#   9]+0.096*[#  21]+0.096*[#  22]+0.077*[#   6]
          +0.077*[#   7]+0.077*[#  19]+0.077*[#  20]+0.053*[#   5]+0.053*[#  18]
          +0.002*[#  10]+0.002*[#  23]+0.001*[#   1]+0.001*[#  14]
    |psi|^2 = 0.805
==== e(  17) =    16.44148 eV ==== 
     psi = 0.202*[#   6]+0.202*[#   7]+0.202*[#  19]+0.202*[#  20]+0.048*[#   8]
          +0.048*[#   9]+0.048*[#  21]+0.048*[#  22]
    |psi|^2 = 1.000
==== e(  18) =    16.52055 eV ==== 
     psi = 0.190*[#   6]+0.190*[#   7]+0.190*[#  19]+0.190*[#  20]+0.035*[#   5]
          +0.035*[#  18]+0.027*[#   8]+0.027*[#   9]+0.027*[#  21]+0.027*[#  22]
          +0.002*[#  10]+0.002*[#  23]
    |psi|^2 = 0.943
==== e(  19) =    17.41239 eV ==== 
     psi = 0.238*[#   6]+0.238*[#   7]+0.238*[#  19]+0.238*[#  20]+0.028*[#  11]
          +0.028*[#  24]+0.012*[#   8]+0.012*[#   9]+0.012*[#  21]+0.012*[#  22]
          
    |psi|^2 = 1.057
==== e(  20) =    18.54897 eV ==== 
     psi = 0.119*[#   6]+0.119*[#   7]+0.119*[#  19]+0.119*[#  20]+0.044*[#   5]
          +0.044*[#  18]+0.024*[#  10]+0.024*[#  23]+0.002*[#   1]+0.002*[#  14]
          +0.002*[#  12]+0.002*[#  13]+0.002*[#  25]+0.002*[#  26]+0.001*[#   8]
          +0.001*[#   9]+0.001*[#  21]+0.001*[#  22]
    |psi|^2 = 0.628

 k =   0.0000000000  0.1154700538  0.1541307028
==== e(   1) =   -77.90384 eV ==== 
     psi = 0.442*[#   1]+0.442*[#  14]+0.037*[#  11]+0.037*[#  24]+0.010*[#  12]
          +0.010*[#  13]+0.010*[#  25]+0.010*[#  26]
    |psi|^2 = 1.000
==== e(   2) =   -77.86724 eV ==== 
     psi = 0.475*[#   1]+0.475*[#  14]+0.002*[#  12]+0.002*[#  13]+0.002*[#  25]
          +0.002*[#  26]+0.002*[#  10]+0.002*[#  23]
    |psi|^2 = 0.965
==== e(   3) =   -41.24312 eV ==== 
     psi = 0.017*[#  11]+0.017*[#  24]+0.002*[#   3]+0.002*[#   4]+0.002*[#  16]
          +0.002*[#  17]+0.001*[#  10]+0.001*[#  23]
    |psi|^2 = 0.045
==== e(   4) =   -41.03825 eV ==== 
     psi = 0.071*[#   3]+0.071*[#   4]+0.071*[#  16]+0.071*[#  17]+0.004*[#  10]
          +0.004*[#  23]
    |psi|^2 = 0.293
==== e(   5) =   -41.03135 eV ==== 
     psi = 0.230*[#   3]+0.230*[#   4]+0.230*[#  16]+0.230*[#  17]+0.034*[#   2]
          +0.034*[#  15]+0.002*[#  12]+0.002*[#  13]+0.002*[#  25]+0.002*[#  26]
          
    |psi|^2 = 1.000
==== e(   6) =   -41.01834 eV ==== 
     psi = 0.246*[#   3]+0.246*[#   4]+0.246*[#  16]+0.246*[#  17]+0.004*[#  12]
          +0.004*[#  13]+0.004*[#  25]+0.004*[#  26]
    |psi|^2 = 1.000
==== e(   7) =   -40.99132 eV ==== 
     psi = 0.190*[#   3]+0.190*[#   4]+0.190*[#  16]+0.190*[#  17]+0.003*[#  12]
          +0.003*[#  13]+0.003*[#  25]+0.003*[#  26]
    |psi|^2 = 0.771
==== e(   8) =   -40.98355 eV ==== 
     psi = 0.493*[#   2]+0.493*[#  15]+0.245*[#   3]+0.245*[#   4]+0.245*[#  16]
          +0.245*[#  17]+0.007*[#  11]+0.007*[#  24]+0.004*[#  12]+0.004*[#  13]
          +0.004*[#  25]+0.004*[#  26]
    |psi|^2 = 2.000
==== e(   9) =    10.28740 eV ==== 
     psi = 0.284*[#  10]+0.284*[#  23]+0.116*[#  11]+0.116*[#  24]+0.033*[#  12]
          +0.033*[#  13]+0.033*[#  25]+0.033*[#  26]+0.029*[#   1]+0.029*[#  14]
          
    |psi|^2 = 1.000
==== e(  10) =    13.15982 eV ==== 
     psi = 0.281*[#   5]+0.281*[#  18]+0.106*[#  10]+0.106*[#  23]+0.010*[#  12]
          +0.010*[#  13]+0.010*[#  25]+0.010*[#  26]+0.005*[#   1]+0.005*[#  14]
          +0.002*[#   6]+0.002*[#   7]+0.002*[#  19]+0.002*[#  20]+0.001*[#   8]
          +0.001*[#   9]+0.001*[#  21]+0.001*[#  22]
    |psi|^2 = 0.835
==== e(  11) =    15.39513 eV ==== 
     psi = 0.164*[#   5]+0.164*[#  18]+0.160*[#   8]+0.160*[#   9]+0.160*[#  21]
          +0.160*[#  22]+0.080*[#  11]+0.080*[#  24]+0.006*[#   6]+0.006*[#   7]
          +0.006*[#  19]+0.006*[#  20]+0.002*[#   2]+0.002*[#  15]
    |psi|^2 = 1.159
==== e(  12) =    15.44238 eV ==== 
     psi = 0.096*[#   8]+0.096*[#   9]+0.096*[#  21]+0.096*[#  22]+0.076*[#   6]
          +0.076*[#   7]+0.076*[#  19]+0.076*[#  20]+0.069*[#   5]+0.069*[#  18]
          +0.006*[#  10]+0.006*[#  23]+0.002*[#   1]+0.002*[#  14]
    |psi|^2 = 0.842
==== e(  13) =    15.51603 eV ==== 
     psi = 0.276*[#   5]+0.276*[#  18]+0.067*[#   8]+0.067*[#   9]+0.067*[#  21]
          +0.067*[#  22]+0.042*[#   6]+0.042*[#   7]+0.042*[#  19]+0.042*[#  20]
          +0.005*[#  11]+0.005*[#  24]
    |psi|^2 = 0.999
==== e(  14) =    15.68799 eV ==== 
     psi = 0.198*[#   8]+0.198*[#   9]+0.198*[#  21]+0.198*[#  22]+0.052*[#   6]
          +0.052*[#   7]+0.052*[#  19]+0.052*[#  20]
    |psi|^2 = 0.999
==== e(  15) =    15.95167 eV ==== 
     psi = 0.226*[#   8]+0.226*[#   9]+0.226*[#  21]+0.226*[#  22]+0.023*[#   6]
          +0.023*[#   7]+0.023*[#  19]+0.023*[#  20]
    |psi|^2 = 0.999
==== e(  16) =    16.07781 eV ==== 
     psi = 0.137*[#   8]+0.137*[#   9]+0.137*[#  21]+0.137*[#  22]+0.075*[#   5]
          +0.075*[#  18]+0.027*[#   6]+0.027*[#   7]+0.027*[#  19]+0.027*[#  20]
          +0.004*[#  10]+0.004*[#  23]+0.002*[#   1]+0.002*[#  14]
    |psi|^2 = 0.819
==== e(  17) =    16.58470 eV ==== 
     psi = 0.195*[#   6]+0.195*[#   7]+0.195*[#  19]+0.195*[#  20]+0.054*[#   8]
          +0.054*[#   9]+0.054*[#  21]+0.054*[#  22]
    |psi|^2 = 1.000
==== e(  18) =    16.64054 eV ==== 
     psi = 0.191*[#   6]+0.191*[#   7]+0.191*[#  19]+0.191*[#  20]+0.038*[#   5]
          +0.038*[#  18]+0.034*[#   8]+0.034*[#   9]+0.034*[#  21]+0.034*[#  22]
          +0.001*[#  10]+0.001*[#  23]
    |psi|^2 = 0.986
==== e(  19) =    17.37505 eV ==== 
     psi = 0.229*[#   6]+0.229*[#   7]+0.229*[#  19]+0.229*[#  20]+0.021*[#   8]
          +0.021*[#   9]+0.021*[#  21]+0.021*[#  22]+0.007*[#  11]+0.007*[#  24]
          
    |psi|^2 = 1.014
==== e(  20) =    18.09659 eV ==== 
     psi = 0.153*[#   6]+0.153*[#   7]+0.153*[#  19]+0.153*[#  20]+0.052*[#   5]
          +0.052*[#  18]+0.021*[#  10]+0.021*[#  23]+0.004*[#   8]+0.004*[#   9]
          +0.004*[#  21]+0.004*[#  22]+0.003*[#   1]+0.003*[#  14]+0.002*[#  12]
          +0.002*[#  13]+0.002*[#  25]+0.002*[#  26]
    |psi|^2 = 0.784

 k =   0.0000000000  0.1154700538  0.1981680465
==== e(   1) =   -77.89932 eV ==== 
     psi = 0.440*[#   1]+0.440*[#  14]+0.044*[#  11]+0.044*[#  24]+0.008*[#  12]
          +0.008*[#  13]+0.008*[#  25]+0.008*[#  26]
    |psi|^2 = 1.000
==== e(   2) =   -77.87178 eV ==== 
     psi = 0.466*[#   1]+0.466*[#  14]+0.003*[#  12]+0.003*[#  13]+0.003*[#  25]
          +0.003*[#  26]+0.002*[#  10]+0.002*[#  23]
    |psi|^2 = 0.949
==== e(   3) =   -41.21791 eV ==== 
     psi = 0.026*[#  11]+0.026*[#  24]+0.004*[#   3]+0.004*[#   4]+0.004*[#  16]
          +0.004*[#  17]+0.002*[#  10]+0.002*[#  23]
    |psi|^2 = 0.070
==== e(   4) =   -41.06339 eV ==== 
     psi = 0.036*[#   3]+0.036*[#   4]+0.036*[#  16]+0.036*[#  17]+0.004*[#  10]
          +0.004*[#  23]
    |psi|^2 = 0.151
==== e(   5) =   -41.02676 eV ==== 
     psi = 0.243*[#   3]+0.243*[#   4]+0.243*[#  16]+0.243*[#  17]+0.009*[#   2]
          +0.009*[#  15]+0.003*[#  12]+0.003*[#  13]+0.003*[#  25]+0.003*[#  26]
          
    |psi|^2 = 1.000
==== e(   6) =   -41.01405 eV ==== 
     psi = 0.246*[#   3]+0.246*[#   4]+0.246*[#  16]+0.246*[#  17]+0.004*[#  12]
          +0.004*[#  13]+0.004*[#  25]+0.004*[#  26]
    |psi|^2 = 1.000
==== e(   7) =   -40.99639 eV ==== 
     psi = 0.211*[#   3]+0.211*[#   4]+0.211*[#  16]+0.211*[#  17]+0.003*[#  12]
          +0.003*[#  13]+0.003*[#  25]+0.003*[#  26]
    |psi|^2 = 0.858
==== e(   8) =   -40.98785 eV ==== 
     psi = 0.492*[#   2]+0.492*[#  15]+0.246*[#   3]+0.246*[#   4]+0.246*[#  16]
          +0.246*[#  17]+0.008*[#  11]+0.008*[#  24]+0.004*[#  12]+0.004*[#  13]
          +0.004*[#  25]+0.004*[#  26]
    |psi|^2 = 2.000
==== e(   9) =    10.66283 eV ==== 
     psi = 0.249*[#  10]+0.249*[#  23]+0.158*[#  11]+0.158*[#  24]+0.029*[#   1]
          +0.029*[#  14]+0.027*[#  12]+0.027*[#  13]+0.027*[#  25]+0.027*[#  26]
          +0.003*[#   5]+0.003*[#  18]+0.002*[#   6]+0.002*[#   7]+0.002*[#  19]
          +0.002*[#  20]+0.001*[#   2]+0.001*[#  15]
    |psi|^2 = 1.000
==== e(  10) =    12.94023 eV ==== 
     psi = 0.193*[#   5]+0.193*[#  18]+0.126*[#  10]+0.126*[#  23]+0.012*[#  12]
          +0.012*[#  13]+0.012*[#  25]+0.012*[#  26]+0.009*[#   1]+0.009*[#  14]
          +0.003*[#   6]+0.003*[#   7]+0.003*[#  19]+0.003*[#  20]
    |psi|^2 = 0.720
==== e(  11) =    15.25304 eV ==== 
     psi = 0.139*[#   5]+0.139*[#  18]+0.137*[#  11]+0.137*[#  24]+0.068*[#   8]
          +0.068*[#   9]+0.068*[#  21]+0.068*[#  22]+0.067*[#   6]+0.067*[#   7]
          +0.067*[#  19]+0.067*[#  20]+0.006*[#  10]+0.006*[#  23]+0.003*[#   2]
          +0.003*[#  15]+0.003*[#   1]+0.003*[#  14]
    |psi|^2 = 1.115
==== e(  12) =    15.37990 eV ==== 
     psi = 0.403*[#   5]+0.403*[#  18]+0.032*[#   6]+0.032*[#   7]+0.032*[#  19]
          +0.032*[#  20]+0.013*[#   8]+0.013*[#   9]+0.013*[#  21]+0.013*[#  22]
          
    |psi|^2 = 0.990
==== e(  13) =    15.43140 eV ==== 
     psi = 0.202*[#   8]+0.202*[#   9]+0.202*[#  21]+0.202*[#  22]+0.051*[#   5]
          +0.051*[#  18]+0.021*[#   6]+0.021*[#   7]+0.021*[#  19]+0.021*[#  20]
          +0.002*[#  11]+0.002*[#  24]
    |psi|^2 = 0.998
==== e(  14) =    15.67085 eV ==== 
     psi = 0.195*[#   8]+0.195*[#   9]+0.195*[#  21]+0.195*[#  22]+0.054*[#   6]
          +0.054*[#   7]+0.054*[#  19]+0.054*[#  20]
    |psi|^2 = 0.999
==== e(  15) =    15.87977 eV ==== 
     psi = 0.218*[#   8]+0.218*[#   9]+0.218*[#  21]+0.218*[#  22]+0.031*[#   6]
          +0.031*[#   7]+0.031*[#  19]+0.031*[#  20]
    |psi|^2 = 0.999
==== e(  16) =    15.92308 eV ==== 
     psi = 0.168*[#   8]+0.168*[#   9]+0.168*[#  21]+0.168*[#  22]+0.091*[#   5]
[...]
          +0.054*[#   6]+0.054*[#   7]+0.054*[#  19]+0.054*[#  20]+0.053*[#  11]
          +0.053*[#  24]+0.020*[#  10]+0.020*[#  23]
    |psi|^2 = 1.104
==== e(  11) =    15.70796 eV ==== 
     psi = 0.116*[#   6]+0.116*[#   7]+0.116*[#  19]+0.116*[#  20]+0.071*[#   5]
          +0.071*[#  18]+0.050*[#   8]+0.050*[#   9]+0.050*[#  21]+0.050*[#  22]
          +0.036*[#  12]+0.036*[#  13]+0.036*[#  25]+0.036*[#  26]+0.017*[#  10]
          +0.017*[#  23]
    |psi|^2 = 0.987
==== e(  12) =    15.75913 eV ==== 
     psi = 0.135*[#   8]+0.135*[#   9]+0.135*[#  21]+0.135*[#  22]+0.062*[#  12]
          +0.062*[#  13]+0.062*[#  25]+0.062*[#  26]+0.058*[#   5]+0.058*[#  18]
          +0.021*[#   6]+0.021*[#   7]+0.021*[#  19]+0.021*[#  20]+0.004*[#  10]
          +0.004*[#  23]+0.001*[#  11]+0.001*[#  24]
    |psi|^2 = 0.999
==== e(  13) =    16.85523 eV ==== 
     psi = 0.141*[#   6]+0.141*[#   7]+0.141*[#  19]+0.141*[#  20]+0.072*[#   8]
          +0.072*[#   9]+0.072*[#  21]+0.072*[#  22]+0.032*[#  11]+0.032*[#  24]
          +0.015*[#  12]+0.015*[#  13]+0.015*[#  25]+0.015*[#  26]+0.007*[#   5]
          +0.007*[#  18]+0.002*[#  10]+0.002*[#  23]
    |psi|^2 = 0.998
==== e(  14) =    16.87651 eV ==== 
     psi = 0.137*[#   6]+0.137*[#   7]+0.137*[#  19]+0.137*[#  20]+0.072*[#   8]
          +0.072*[#   9]+0.072*[#  21]+0.072*[#  22]+0.019*[#  11]+0.019*[#  24]
          +0.017*[#  12]+0.017*[#  13]+0.017*[#  25]+0.017*[#  26]+0.005*[#  10]
          +0.005*[#  23]+0.003*[#   5]+0.003*[#  18]
    |psi|^2 = 0.958
==== e(  15) =    18.05482 eV ==== 
     psi = 0.205*[#   8]+0.205*[#   9]+0.205*[#  21]+0.205*[#  22]+0.039*[#  11]
          +0.039*[#  24]+0.028*[#   6]+0.028*[#   7]+0.028*[#  19]+0.028*[#  20]
          +0.013*[#  12]+0.013*[#  13]+0.013*[#  25]+0.013*[#  26]+0.008*[#   5]
          +0.008*[#  18]
    |psi|^2 = 1.075
==== e(  16) =    18.95663 eV ==== 
     psi = 0.208*[#   6]+0.208*[#   7]+0.208*[#  19]+0.208*[#  20]+0.041*[#   8]
          +0.041*[#   9]+0.041*[#  21]+0.041*[#  22]+0.005*[#  11]+0.005*[#  24]
          
    |psi|^2 = 1.009
==== e(  17) =    19.37523 eV ==== 
     psi = 0.327*[#   5]+0.327*[#  18]+0.047*[#   8]+0.047*[#   9]+0.047*[#  21]
          +0.047*[#  22]+0.039*[#   6]+0.039*[#   7]+0.039*[#  19]+0.039*[#  20]
          
    |psi|^2 = 0.999
==== e(  18) =    19.50501 eV ==== 
     psi = 0.319*[#   5]+0.319*[#  18]+0.051*[#   8]+0.051*[#   9]+0.051*[#  21]
          +0.051*[#  22]+0.039*[#   6]+0.039*[#   7]+0.039*[#  19]+0.039*[#  20]
          
    |psi|^2 = 0.999
==== e(  19) =    23.89715 eV ==== 
     psi = 0.137*[#  12]+0.137*[#  13]+0.137*[#  25]+0.137*[#  26]+0.069*[#   8]
          +0.069*[#   9]+0.069*[#  21]+0.069*[#  22]+0.027*[#  10]+0.027*[#  23]
          +0.014*[#   5]+0.014*[#  18]+0.013*[#   6]+0.013*[#   7]+0.013*[#  19]
          +0.013*[#  20]
    |psi|^2 = 0.959
==== e(  20) =    24.19961 eV ==== 
     psi = 0.109*[#  12]+0.109*[#  13]+0.109*[#  25]+0.109*[#  26]+0.091*[#  10]
          +0.091*[#  23]+0.059*[#   8]+0.059*[#   9]+0.059*[#  21]+0.059*[#  22]
          +0.031*[#   5]+0.031*[#  18]
    |psi|^2 = 0.916

 k =   0.3000000000  0.5773502692  0.1981680465
==== e(   1) =   -75.47680 eV ==== 
     psi = 0.491*[#   1]+0.491*[#  14]+0.005*[#  10]+0.005*[#  23]+0.002*[#  12]
          +0.002*[#  13]+0.002*[#  25]+0.002*[#  26]
    |psi|^2 = 1.000
==== e(   2) =   -75.47498 eV ==== 
     psi = 0.491*[#   1]+0.491*[#  14]+0.006*[#  10]+0.006*[#  23]+0.002*[#  11]
          +0.002*[#  24]
    |psi|^2 = 1.003
==== e(   3) =   -38.95402 eV ==== 
     psi = 0.178*[#   3]+0.178*[#   4]+0.178*[#  16]+0.178*[#  17]+0.001*[#  12]
          +0.001*[#  13]+0.001*[#  25]+0.001*[#  26]
    |psi|^2 = 0.717
==== e(   4) =   -38.94621 eV ==== 
     psi = 0.175*[#   3]+0.175*[#   4]+0.175*[#  16]+0.175*[#  17]
    |psi|^2 = 0.706
==== e(   5) =   -38.91070 eV ==== 
     psi = 0.239*[#   3]+0.239*[#   4]+0.239*[#  16]+0.239*[#  17]+0.021*[#   2]
          +0.021*[#  15]
    |psi|^2 = 1.000
==== e(   6) =   -38.85758 eV ==== 
     psi = 0.363*[#   2]+0.363*[#  15]+0.246*[#   3]+0.246*[#   4]+0.246*[#  16]
          +0.246*[#  17]
    |psi|^2 = 1.712
==== e(   7) =   -38.76827 eV ==== 
     psi = 0.081*[#   3]+0.081*[#   4]+0.081*[#  16]+0.081*[#  17]+0.007*[#   2]
          +0.007*[#  15]
    |psi|^2 = 0.341
==== e(   8) =   -38.75987 eV ==== 
     psi = 0.306*[#   2]+0.306*[#  15]+0.077*[#   3]+0.077*[#   4]+0.077*[#  16]
          +0.077*[#  17]
    |psi|^2 = 0.923
==== e(   9) =    15.47690 eV ==== 
     psi = 0.143*[#   6]+0.143*[#   7]+0.143*[#  19]+0.143*[#  20]+0.051*[#   5]
          +0.051*[#  18]+0.041*[#   8]+0.041*[#   9]+0.041*[#  21]+0.041*[#  22]
          +0.027*[#  12]+0.027*[#  13]+0.027*[#  25]+0.027*[#  26]+0.022*[#  10]
          +0.022*[#  23]
    |psi|^2 = 0.993
==== e(  10) =    15.70608 eV ==== 
     psi = 0.080*[#   8]+0.080*[#   9]+0.080*[#  21]+0.080*[#  22]+0.075*[#   6]
          +0.075*[#   7]+0.075*[#  19]+0.075*[#  20]+0.061*[#  12]+0.061*[#  13]
          +0.061*[#  25]+0.061*[#  26]+0.053*[#  11]+0.053*[#  24]+0.049*[#   5]
          +0.049*[#  18]+0.017*[#  10]+0.017*[#  23]
    |psi|^2 = 1.105
==== e(  11) =    15.82943 eV ==== 
     psi = 0.124*[#   6]+0.124*[#   7]+0.124*[#  19]+0.124*[#  20]+0.074*[#   5]
          +0.074*[#  18]+0.043*[#   8]+0.043*[#   9]+0.043*[#  21]+0.043*[#  22]
          +0.033*[#  12]+0.033*[#  13]+0.033*[#  25]+0.033*[#  26]+0.019*[#  10]
          +0.019*[#  23]
    |psi|^2 = 0.989
==== e(  12) =    15.85065 eV ==== 
     psi = 0.101*[#   8]+0.101*[#   9]+0.101*[#  21]+0.101*[#  22]+0.097*[#   5]
          +0.097*[#  18]+0.050*[#   6]+0.050*[#   7]+0.050*[#  19]+0.050*[#  20]
          +0.043*[#  12]+0.043*[#  13]+0.043*[#  25]+0.043*[#  26]+0.020*[#  11]
          +0.020*[#  24]+0.012*[#  10]+0.012*[#  23]
    |psi|^2 = 1.036
==== e(  13) =    16.77359 eV ==== 
     psi = 0.109*[#   8]+0.109*[#   9]+0.109*[#  21]+0.109*[#  22]+0.094*[#   6]
          +0.094*[#   7]+0.094*[#  19]+0.094*[#  20]+0.031*[#  11]+0.031*[#  24]
          +0.025*[#  12]+0.025*[#  13]+0.025*[#  25]+0.025*[#  26]+0.009*[#   5]
          +0.009*[#  18]+0.002*[#  10]+0.002*[#  23]
    |psi|^2 = 0.998
==== e(  14) =    16.78380 eV ==== 
     psi = 0.108*[#   8]+0.108*[#   9]+0.108*[#  21]+0.108*[#  22]+0.090*[#   6]
          +0.090*[#   7]+0.090*[#  19]+0.090*[#  20]+0.029*[#  11]+0.029*[#  24]
          +0.029*[#  12]+0.029*[#  13]+0.029*[#  25]+0.029*[#  26]+0.005*[#  10]
          +0.005*[#  23]+0.002*[#   5]+0.002*[#  18]
    |psi|^2 = 0.982
==== e(  15) =    18.06559 eV ==== 
     psi = 0.189*[#   8]+0.189*[#   9]+0.189*[#  21]+0.189*[#  22]+0.046*[#   6]
          +0.046*[#   7]+0.046*[#  19]+0.046*[#  20]+0.037*[#  11]+0.037*[#  24]
          +0.010*[#  12]+0.010*[#  13]+0.010*[#  25]+0.010*[#  26]+0.005*[#   5]
          +0.005*[#  18]
    |psi|^2 = 1.070
==== e(  16) =    18.71724 eV ==== 
     psi = 0.186*[#   6]+0.186*[#   7]+0.186*[#  19]+0.186*[#  20]+0.063*[#   8]
          +0.063*[#   9]+0.063*[#  21]+0.063*[#  22]+0.010*[#  11]+0.010*[#  24]
          
    |psi|^2 = 1.018
==== e(  17) =    19.42365 eV ==== 
     psi = 0.337*[#   5]+0.337*[#  18]+0.054*[#   6]+0.054*[#   7]+0.054*[#  19]
          +0.054*[#  20]+0.026*[#   8]+0.026*[#   9]+0.026*[#  21]+0.026*[#  22]
          
    |psi|^2 = 0.999
==== e(  18) =    19.53187 eV ==== 
     psi = 0.330*[#   5]+0.330*[#  18]+0.054*[#   6]+0.054*[#   7]+0.054*[#  19]
          +0.054*[#  20]+0.030*[#   8]+0.030*[#   9]+0.030*[#  21]+0.030*[#  22]
          
    |psi|^2 = 0.999
==== e(  19) =    24.13470 eV ==== 
     psi = 0.135*[#  12]+0.135*[#  13]+0.135*[#  25]+0.135*[#  26]+0.065*[#   8]
          +0.065*[#   9]+0.065*[#  21]+0.065*[#  22]+0.021*[#  10]+0.021*[#  23]
          +0.012*[#   6]+0.012*[#   7]+0.012*[#  19]+0.012*[#  20]+0.010*[#   5]
          +0.010*[#  18]
    |psi|^2 = 0.911
==== e(  20) =    24.26990 eV ==== 
     psi = 0.111*[#  12]+0.111*[#  13]+0.111*[#  25]+0.111*[#  26]+0.063*[#  10]
          +0.063*[#  23]+0.063*[#   8]+0.063*[#   9]+0.063*[#  21]+0.063*[#  22]
          +0.020*[#   5]+0.020*[#  18]
    |psi|^2 = 0.868

 k =   0.3000000000  0.5773502692  0.2422053902
==== e(   1) =   -75.47645 eV ==== 
     psi = 0.493*[#   1]+0.493*[#  14]+0.005*[#  10]+0.005*[#  23]
    |psi|^2 = 1.000
==== e(   2) =   -75.47533 eV ==== 
     psi = 0.493*[#   1]+0.493*[#  14]+0.006*[#  10]+0.006*[#  23]
    |psi|^2 = 1.001
==== e(   3) =   -38.96083 eV ==== 
     psi = 0.170*[#   3]+0.170*[#   4]+0.170*[#  16]+0.170*[#  17]+0.001*[#  12]
          +0.001*[#  13]+0.001*[#  25]+0.001*[#  26]
    |psi|^2 = 0.686
==== e(   4) =   -38.95632 eV ==== 
     psi = 0.170*[#   3]+0.170*[#   4]+0.170*[#  16]+0.170*[#  17]
    |psi|^2 = 0.685
==== e(   5) =   -38.90145 eV ==== 
     psi = 0.243*[#   3]+0.243*[#   4]+0.243*[#  16]+0.243*[#  17]+0.012*[#   2]
          +0.012*[#  15]
    |psi|^2 = 1.000
==== e(   6) =   -38.86806 eV ==== 
     psi = 0.335*[#   2]+0.335*[#  15]+0.246*[#   3]+0.246*[#   4]+0.246*[#  16]
          +0.246*[#  17]
    |psi|^2 = 1.657
==== e(   7) =   -38.75760 eV ==== 
     psi = 0.084*[#   3]+0.084*[#   4]+0.084*[#  16]+0.084*[#  17]+0.007*[#   2]
          +0.007*[#  15]
    |psi|^2 = 0.353
==== e(   8) =   -38.75244 eV ==== 
     psi = 0.308*[#   2]+0.308*[#  15]+0.082*[#   3]+0.082*[#   4]+0.082*[#  16]
          +0.082*[#  17]
    |psi|^2 = 0.946
==== e(   9) =    15.53733 eV ==== 
     psi = 0.142*[#   6]+0.142*[#   7]+0.142*[#  19]+0.142*[#  20]+0.049*[#   5]
          +0.049*[#  18]+0.041*[#   8]+0.041*[#   9]+0.041*[#  21]+0.041*[#  22]
          +0.029*[#  12]+0.029*[#  13]+0.029*[#  25]+0.029*[#  26]+0.023*[#  10]
          +0.023*[#  23]
    |psi|^2 = 0.994
==== e(  10) =    15.68652 eV ==== 
     psi = 0.099*[#   6]+0.099*[#   7]+0.099*[#  19]+0.099*[#  20]+0.067*[#   8]
          +0.067*[#   9]+0.067*[#  21]+0.067*[#  22]+0.051*[#  12]+0.051*[#  13]
          +0.051*[#  25]+0.051*[#  26]+0.050*[#  11]+0.050*[#  24]+0.044*[#   5]
          +0.044*[#  18]+0.019*[#  10]+0.019*[#  23]
    |psi|^2 = 1.098
==== e(  11) =    15.93976 eV ==== 
     psi = 0.134*[#   6]+0.134*[#   7]+0.134*[#  19]+0.134*[#  20]+0.080*[#   5]
          +0.080*[#  18]+0.034*[#   8]+0.034*[#   9]+0.034*[#  21]+0.034*[#  22]
          +0.029*[#  12]+0.029*[#  13]+0.029*[#  25]+0.029*[#  26]+0.021*[#  10]
          +0.021*[#  23]
    |psi|^2 = 0.991
==== e(  12) =    15.94465 eV ==== 
     psi = 0.102*[#   5]+0.102*[#  18]+0.085*[#   6]+0.085*[#   7]+0.085*[#  19]
          +0.085*[#  20]+0.072*[#   8]+0.072*[#   9]+0.072*[#  21]+0.072*[#  22]
          +0.032*[#  12]+0.032*[#  13]+0.032*[#  25]+0.032*[#  26]+0.030*[#  11]
          +0.030*[#  24]+0.017*[#  10]+0.017*[#  23]
    |psi|^2 = 1.056
==== e(  13) =    16.69316 eV ==== 
     psi = 0.146*[#   8]+0.146*[#   9]+0.146*[#  21]+0.146*[#  22]+0.045*[#   6]
          +0.045*[#   7]+0.045*[#  19]+0.045*[#  20]+0.037*[#  12]+0.037*[#  13]
          +0.037*[#  25]+0.037*[#  26]+0.031*[#  11]+0.031*[#  24]+0.008*[#   5]
          +0.008*[#  18]
    |psi|^2 = 0.998
==== e(  14) =    16.69845 eV ==== 
     psi = 0.145*[#   8]+0.145*[#   9]+0.145*[#  21]+0.145*[#  22]+0.043*[#   6]
          +0.043*[#   7]+0.043*[#  19]+0.043*[#  20]+0.041*[#  12]+0.041*[#  13]
          +0.041*[#  25]+0.041*[#  26]+0.038*[#  11]+0.038*[#  24]+0.004*[#  10]
          +0.004*[#  23]
    |psi|^2 = 1.003
==== e(  15) =    18.10501 eV ==== 
     psi = 0.169*[#   8]+0.169*[#   9]+0.169*[#  21]+0.169*[#  22]+0.071*[#   6]
          +0.071*[#   7]+0.071*[#  19]+0.071*[#  20]+0.035*[#  11]+0.035*[#  24]
          +0.007*[#  12]+0.007*[#  13]+0.007*[#  25]+0.007*[#  26]+0.003*[#   5]
          +0.003*[#  18]
    |psi|^2 = 1.067
==== e(  16) =    18.49726 eV ==== 
     psi = 0.160*[#   6]+0.160*[#   7]+0.160*[#  19]+0.160*[#  20]+0.088*[#   8]
          +0.088*[#   9]+0.088*[#  21]+0.088*[#  22]+0.018*[#  11]+0.018*[#  24]
          
    |psi|^2 = 1.033
==== e(  17) =    19.47050 eV ==== 
     psi = 0.345*[#   5]+0.345*[#  18]+0.066*[#   6]+0.066*[#   7]+0.066*[#  19]
          +0.066*[#  20]+0.010*[#   8]+0.010*[#   9]+0.010*[#  21]+0.010*[#  22]
          +0.001*[#  10]+0.001*[#  23]
    |psi|^2 = 0.999
==== e(  18) =    19.54285 eV ==== 
     psi = 0.341*[#   5]+0.341*[#  18]+0.065*[#   6]+0.065*[#   7]+0.065*[#  19]
          +0.065*[#  20]+0.013*[#   8]+0.013*[#   9]+0.013*[#  21]+0.013*[#  22]
          +0.001*[#  10]+0.001*[#  23]
    |psi|^2 = 0.999
==== e(  19) =    24.31046 eV ==== 
     psi = 0.132*[#  12]+0.132*[#  13]+0.132*[#  25]+0.132*[#  26]+0.065*[#   8]
          +0.065*[#   9]+0.065*[#  21]+0.065*[#  22]+0.008*[#  10]+0.008*[#  23]
          +0.008*[#   6]+0.008*[#   7]+0.008*[#  19]+0.008*[#  20]+0.004*[#   5]
          +0.004*[#  18]
    |psi|^2 = 0.846
==== e(  20) =    24.34279 eV ==== 
     psi = 0.116*[#  12]+0.116*[#  13]+0.116*[#  25]+0.116*[#  26]+0.066*[#   8]
          +0.066*[#   9]+0.066*[#  21]+0.066*[#  22]+0.034*[#  10]+0.034*[#  23]
          +0.009*[#   5]+0.009*[#  18]+0.001*[#   6]+0.001*[#   7]+0.001*[#  19]
          +0.001*[#  20]
    |psi|^2 = 0.819

 k =   0.3000000000  0.5773502692  0.2862427338
==== e(   1) =   -75.47608 eV ==== 
     psi = 0.494*[#   1]+0.494*[#  14]+0.005*[#  10]+0.005*[#  23]
    |psi|^2 = 1.000
==== e(   2) =   -75.47570 eV ==== 
     psi = 0.494*[#   1]+0.494*[#  14]+0.005*[#  10]+0.005*[#  23]
    |psi|^2 = 1.000
==== e(   3) =   -38.96381 eV ==== 
     psi = 0.167*[#   3]+0.167*[#   4]+0.167*[#  16]+0.167*[#  17]+0.001*[#  12]
          +0.001*[#  13]+0.001*[#  25]+0.001*[#  26]
    |psi|^2 = 0.675
==== e(   4) =   -38.96230 eV ==== 
     psi = 0.168*[#   3]+0.168*[#   4]+0.168*[#  16]+0.168*[#  17]+0.001*[#  12]
          +0.001*[#  13]+0.001*[#  25]+0.001*[#  26]
    |psi|^2 = 0.675
==== e(   5) =   -38.89066 eV ==== 
     psi = 0.245*[#   3]+0.245*[#   4]+0.245*[#  16]+0.245*[#  17]+0.009*[#   2]
          +0.009*[#  15]
    |psi|^2 = 1.000
==== e(   6) =   -38.87930 eV ==== 
     psi = 0.320*[#   2]+0.320*[#  15]+0.246*[#   3]+0.246*[#   4]+0.246*[#  16]
          +0.246*[#  17]
    |psi|^2 = 1.627
==== e(   7) =   -38.75118 eV ==== 
     psi = 0.085*[#   3]+0.085*[#   4]+0.085*[#  16]+0.085*[#  17]+0.007*[#   2]
          +0.007*[#  15]
    |psi|^2 = 0.358
==== e(   8) =   -38.74944 eV ==== 
     psi = 0.312*[#   2]+0.312*[#  15]+0.084*[#   3]+0.084*[#   4]+0.084*[#  16]
          +0.084*[#  17]
    |psi|^2 = 0.965
==== e(   9) =    15.59760 eV ==== 
     psi = 0.135*[#   6]+0.135*[#   7]+0.135*[#  19]+0.135*[#  20]+0.046*[#   5]
          +0.046*[#  18]+0.045*[#   8]+0.045*[#   9]+0.045*[#  21]+0.045*[#  22]
          +0.033*[#  12]+0.033*[#  13]+0.033*[#  25]+0.033*[#  26]+0.023*[#  10]
          +0.023*[#  23]
    |psi|^2 = 0.995
==== e(  10) =    15.64945 eV ==== 
     psi = 0.121*[#   6]+0.121*[#   7]+0.121*[#  19]+0.121*[#  20]+0.054*[#   8]
          +0.054*[#   9]+0.054*[#  21]+0.054*[#  22]+0.045*[#  11]+0.045*[#  24]
          +0.044*[#   5]+0.044*[#  18]+0.041*[#  12]+0.041*[#  13]+0.041*[#  25]
          +0.041*[#  26]+0.022*[#  10]+0.022*[#  23]
    |psi|^2 = 1.086
==== e(  11) =    16.00922 eV ==== 
     psi = 0.121*[#   6]+0.121*[#   7]+0.121*[#  19]+0.121*[#  20]+0.100*[#   5]
          +0.100*[#  18]+0.044*[#   8]+0.044*[#   9]+0.044*[#  21]+0.044*[#  22]
          +0.024*[#  12]+0.024*[#  13]+0.024*[#  25]+0.024*[#  26]+0.021*[#  10]
          +0.021*[#  23]
    |psi|^2 = 0.996
==== e(  12) =    16.00953 eV ==== 
     psi = 0.139*[#   6]+0.139*[#   7]+0.139*[#  19]+0.139*[#  20]+0.091*[#   5]
          +0.091*[#  18]+0.038*[#  11]+0.038*[#  24]+0.030*[#   8]+0.030*[#   9]
          +0.030*[#  21]+0.030*[#  22]+0.023*[#  12]+0.023*[#  13]+0.023*[#  25]
          +0.023*[#  26]+0.022*[#  10]+0.022*[#  23]
    |psi|^2 = 1.070
==== e(  13) =    16.63943 eV ==== 
     psi = 0.174*[#   8]+0.174*[#   9]+0.174*[#  21]+0.174*[#  22]+0.048*[#  12]
          +0.048*[#  13]+0.048*[#  25]+0.048*[#  26]+0.032*[#  11]+0.032*[#  24]
          +0.009*[#   6]+0.009*[#   7]+0.009*[#  19]+0.009*[#  20]+0.004*[#   5]
          +0.004*[#  18]
    |psi|^2 = 0.998
==== e(  14) =    16.64152 eV ==== 
     psi = 0.172*[#   8]+0.172*[#   9]+0.172*[#  21]+0.172*[#  22]+0.050*[#  12]
          +0.050*[#  13]+0.050*[#  25]+0.050*[#  26]+0.039*[#  11]+0.039*[#  24]
          +0.009*[#   6]+0.009*[#   7]+0.009*[#  19]+0.009*[#  20]+0.001*[#  10]
          +0.001*[#  23]
    |psi|^2 = 1.009
==== e(  15) =    18.18587 eV ==== 
     psi = 0.144*[#   8]+0.144*[#   9]+0.144*[#  21]+0.144*[#  22]+0.100*[#   6]
          +0.100*[#   7]+0.100*[#  19]+0.100*[#  20]+0.034*[#  11]+0.034*[#  24]
          +0.004*[#  12]+0.004*[#  13]+0.004*[#  25]+0.004*[#  26]+0.002*[#   5]
          +0.002*[#  18]
    |psi|^2 = 1.064
==== e(  16) =    18.31664 eV ==== 
     psi = 0.131*[#   6]+0.131*[#   7]+0.131*[#  19]+0.131*[#  20]+0.116*[#   8]
          +0.116*[#   9]+0.116*[#  21]+0.116*[#  22]+0.030*[#  11]+0.030*[#  24]
          +0.002*[#  12]+0.002*[#  13]+0.002*[#  25]+0.002*[#  26]
    |psi|^2 = 1.056
==== e(  17) =    19.50961 eV ==== 
     psi = 0.348*[#   5]+0.348*[#  18]+0.072*[#   6]+0.072*[#   7]+0.072*[#  19]
          +0.072*[#  20]+0.002*[#   8]+0.002*[#   9]+0.002*[#  21]+0.002*[#  22]
          +0.002*[#  10]+0.002*[#  23]
    |psi|^2 = 0.999
==== e(  18) =    19.53512 eV ==== 
     psi = 0.347*[#   5]+0.347*[#  18]+0.072*[#   6]+0.072*[#   7]+0.072*[#  19]
          +0.072*[#  20]+0.003*[#   8]+0.003*[#   9]+0.003*[#  21]+0.003*[#  22]
          +0.002*[#  10]+0.002*[#  23]
    |psi|^2 = 1.000
==== e(  19) =    24.39546 eV ==== 
     psi = 0.127*[#  12]+0.127*[#  13]+0.127*[#  25]+0.127*[#  26]+0.067*[#   8]
          +0.067*[#   9]+0.067*[#  21]+0.067*[#  22]+0.005*[#   6]+0.005*[#   7]
          +0.005*[#  19]+0.005*[#  20]
    |psi|^2 = 0.796
==== e(  20) =    24.39581 eV ==== 
     psi = 0.121*[#  12]+0.121*[#  13]+0.121*[#  25]+0.121*[#  26]+0.068*[#   8]
          +0.068*[#   9]+0.068*[#  21]+0.068*[#  22]+0.009*[#  10]+0.009*[#  23]
          +0.003*[#   6]+0.003*[#   7]+0.003*[#  19]+0.003*[#  20]+0.002*[#   5]
          +0.002*[#  18]
    |psi|^2 = 0.788

Lowdin Charges: 

     Atom #   1: total charge =  16.3810, s =  2.3468, p =  6.5069, d =  7.5273, 
                 spin up      =   9.0133, s =  1.1636, 
                 spin up      =   9.0133, p =  3.1890, pz=  0.8590, px=  1.1650, py=  1.1650, 
                 spin up      =   9.0133, d =  4.6607, dz2=  0.9241, dxz=  0.9385, dyz=  0.9385, dx2-y2=  0.9298, dxy=  0.9298, 
                 spin down    =   7.3676, s =  1.1832, 
                 spin down    =   7.3676, p =  3.3178, pz=  0.9130, px=  1.2024, py=  1.2024, 
                 spin down    =   7.3676, d =  2.8666, dz2=  0.5778, dxz=  0.5691, dyz=  0.5691, dx2-y2=  0.5753, dxy=  0.5753, 
                 polarization =   1.6457, s = -0.0196, p = -0.1288, d =  1.7941, 
     Atom #   2: total charge =  16.3810, s =  2.3468, p =  6.5069, d =  7.5273, 
                 spin up      =   9.0133, s =  1.1636, 
                 spin up      =   9.0133, p =  3.1890, pz=  0.8590, px=  1.1650, py=  1.1650, 
                 spin up      =   9.0133, d =  4.6607, dz2=  0.9241, dxz=  0.9385, dyz=  0.9385, dx2-y2=  0.9298, dxy=  0.9298, 
                 spin down    =   7.3676, s =  1.1832, 
                 spin down    =   7.3676, p =  3.3178, pz=  0.9130, px=  1.2024, py=  1.2024, 
                 spin down    =   7.3676, d =  2.8666, dz2=  0.5778, dxz=  0.5691, dyz=  0.5691, dx2-y2=  0.5753, dxy=  0.5753, 
                 polarization =   1.6457, s = -0.0196, p = -0.1288, d =  1.7941, 
     Spilling Parameter:   0.0364

     PROJWFC      :      4.64s CPU      4.99s WALL


   This run was terminated on:  10:39: 7   7May2021            

=------------------------------------------------------------------------------=
   JOB DONE.
=------------------------------------------------------------------------------=
