
     Program PWSCF v.6.7GPU starts on  7May2021 at 10:28:46 

     This program is part of the open-source Quantum ESPRESSO suite
     for quantum simulation of materials; please cite
         "P. Giannozzi et al., J. Phys.:Condens. Matter 21 395502 (2009);
         "P. Giannozzi et al., J. Phys.:Condens. Matter 29 465901 (2017);
         "P. Giannozzi et al., J. Chem. Phys. 152 154105 (2020);
          URL http://www.quantum-espresso.org", 
     in publications or presentations arising from this work. More details at
     http://www.quantum-espresso.org/quote

     Parallel version (MPI & OpenMP), running on       2 processor cores
     Number of MPI processes:                 2
     Threads/MPI process:                     1

     MPI processes distributed on     1 nodes
     K-points division:     npool     =       2
     Reading input from co.scf.in
Warning: card &CELL ignored
Warning: card / ignored

     Current dimensions of program PWSCF are:
     Max number of different atomic species (ntypx) = 10
     Max number of k-points (npk) =  40000
     Max angular momentum in pseudopotentials (lmaxx) =  3

     Subspace diagonalization in iterative solution of the eigenvalue problem:
     a serial algorithm will be used


     G-vector sticks info
     --------------------
     sticks:   dense  smooth     PW     G-vecs:    dense   smooth      PW
     Sum         559     283     85                17009     5955    1099

     Using Slab Decomposition



     bravais-lattice index     =            4
     lattice parameter (alat)  =       4.7150  a.u.
     unit-cell volume          =     147.2403 (a.u.)^3
     number of atoms/cell      =            2
     number of atomic types    =            1
     number of electrons       =        34.00
     number of Kohn-Sham states=           20
     kinetic-energy cutoff     =      45.0000  Ry
     charge density cutoff     =     360.0000  Ry
     scf convergence threshold =      1.0E-08
     mixing beta               =       0.7000
     number of iterations used =            8  plain     mixing
     Exchange-correlation= SLA  PW   PBE  PBE
                           (   1   4   3   4   0   0   0)

     celldm(1)=   4.715000  celldm(2)=   0.000000  celldm(3)=   1.622000
     celldm(4)=   0.000000  celldm(5)=   0.000000  celldm(6)=   0.000000

     crystal axes: (cart. coord. in units of alat)
               a(1) = (   1.000000   0.000000   0.000000 )  
               a(2) = (  -0.500000   0.866025   0.000000 )  
               a(3) = (   0.000000   0.000000   1.622000 )  

     reciprocal axes: (cart. coord. in units 2 pi/alat)
               b(1) = (  1.000000  0.577350 -0.000000 )  
               b(2) = (  0.000000  1.154701  0.000000 )  
               b(3) = (  0.000000 -0.000000  0.616523 )  


     PseudoPot. # 1 for Co read from file:
     /home/pietro/repositories/materials-for-max-qe2021-online-school/pseudo/Co_pbe_v1.2.uspp.F.UPF
     MD5 check sum: 5f91765df6ddd3222702df6e7b74a16d
     Pseudo is Ultrasoft + core correction, Zval = 17.0
     Generated by new atomic code, or converted to UPF format
     Using radial grid of  863 points,  6 beta functions with: 
                l(1) =   0
                l(2) =   0
                l(3) =   1
                l(4) =   1
                l(5) =   2
                l(6) =   2
     Q(r) pseudized with  8 coefficients,  rinner =    1.200   1.200   1.200
                                                       1.200   1.200

     atomic species   valence    mass     pseudopotential
        Co            17.00    58.93300     Co( 1.00)

     Starting magnetic structure 
     atomic species   magnetization
        Co           0.700

     24 Sym. Ops., with inversion, found (12 have fractional translation)



   Cartesian axes

     site n.     atom                  positions (alat units)
         1           Co  tau(   1) = (   0.0000000   0.0000000   0.0000000  )
         2           Co  tau(   2) = (   0.5000000   0.2886751   0.8110000  )

     number of k points=    76  Marzari-Vanderbilt smearing, width (Ry)=  0.0200
                       cart. coord. in units 2pi/alat
        k(    1) = (   0.0000000   0.0000000   0.0385327), wk =   0.0017361
        k(    2) = (   0.0000000   0.0000000   0.1155980), wk =   0.0017361
        k(    3) = (   0.0000000   0.0000000   0.1926634), wk =   0.0017361
        k(    4) = (   0.0000000   0.0000000   0.2697287), wk =   0.0017361
        k(    5) = (   0.0000000   0.0962250   0.0385327), wk =   0.0104167
        k(    6) = (   0.0000000   0.0962250   0.1155980), wk =   0.0104167
        k(    7) = (   0.0000000   0.0962250   0.1926634), wk =   0.0104167
        k(    8) = (   0.0000000   0.0962250   0.2697287), wk =   0.0104167
        k(    9) = (   0.0000000   0.1924501   0.0385327), wk =   0.0104167
        k(   10) = (   0.0000000   0.1924501   0.1155980), wk =   0.0104167
        k(   11) = (   0.0000000   0.1924501   0.1926634), wk =   0.0104167
        k(   12) = (   0.0000000   0.1924501   0.2697287), wk =   0.0104167
        k(   13) = (   0.0000000   0.2886751   0.0385327), wk =   0.0104167
        k(   14) = (   0.0000000   0.2886751   0.1155980), wk =   0.0104167
        k(   15) = (   0.0000000   0.2886751   0.1926634), wk =   0.0104167
        k(   16) = (   0.0000000   0.2886751   0.2697287), wk =   0.0104167
        k(   17) = (   0.0000000   0.3849002   0.0385327), wk =   0.0104167
        k(   18) = (   0.0000000   0.3849002   0.1155980), wk =   0.0104167
        k(   19) = (   0.0000000   0.3849002   0.1926634), wk =   0.0104167
        k(   20) = (   0.0000000   0.3849002   0.2697287), wk =   0.0104167
        k(   21) = (   0.0000000   0.4811252   0.0385327), wk =   0.0104167
        k(   22) = (   0.0000000   0.4811252   0.1155980), wk =   0.0104167
        k(   23) = (   0.0000000   0.4811252   0.1926634), wk =   0.0104167
        k(   24) = (   0.0000000   0.4811252   0.2697287), wk =   0.0104167
        k(   25) = (   0.0000000  -0.5773503   0.0385327), wk =   0.0052083
        k(   26) = (   0.0000000  -0.5773503   0.1155980), wk =   0.0052083
        k(   27) = (   0.0000000  -0.5773503   0.1926634), wk =   0.0052083
        k(   28) = (   0.0000000  -0.5773503   0.2697287), wk =   0.0052083
        k(   29) = (   0.0833333   0.1443376   0.0385327), wk =   0.0104167
        k(   30) = (   0.0833333   0.1443376   0.1155980), wk =   0.0104167
        k(   31) = (   0.0833333   0.1443376   0.1926634), wk =   0.0104167
        k(   32) = (   0.0833333   0.1443376   0.2697287), wk =   0.0104167
        k(   33) = (   0.0833333   0.2405626   0.0385327), wk =   0.0208333
        k(   34) = (   0.0833333   0.2405626   0.1155980), wk =   0.0208333
        k(   35) = (   0.0833333   0.2405626   0.1926634), wk =   0.0208333
        k(   36) = (   0.0833333   0.2405626   0.2697287), wk =   0.0208333
        k(   37) = (   0.0833333   0.3367877   0.0385327), wk =   0.0208333
        k(   38) = (   0.0833333   0.3367877   0.1155980), wk =   0.0208333
        k(   39) = (   0.0833333   0.3367877   0.1926634), wk =   0.0208333
        k(   40) = (   0.0833333   0.3367877   0.2697287), wk =   0.0208333
        k(   41) = (   0.0833333   0.4330127   0.0385327), wk =   0.0208333
        k(   42) = (   0.0833333   0.4330127   0.1155980), wk =   0.0208333
        k(   43) = (   0.0833333   0.4330127   0.1926634), wk =   0.0208333
        k(   44) = (   0.0833333   0.4330127   0.2697287), wk =   0.0208333
        k(   45) = (   0.0833333   0.5292377   0.0385327), wk =   0.0208333
        k(   46) = (   0.0833333   0.5292377   0.1155980), wk =   0.0208333
        k(   47) = (   0.0833333   0.5292377   0.1926634), wk =   0.0208333
        k(   48) = (   0.0833333   0.5292377   0.2697287), wk =   0.0208333
        k(   49) = (   0.1666667   0.2886751   0.0385327), wk =   0.0104167
        k(   50) = (   0.1666667   0.2886751   0.1155980), wk =   0.0104167
        k(   51) = (   0.1666667   0.2886751   0.1926634), wk =   0.0104167
        k(   52) = (   0.1666667   0.2886751   0.2697287), wk =   0.0104167
        k(   53) = (   0.1666667   0.3849002   0.0385327), wk =   0.0208333
        k(   54) = (   0.1666667   0.3849002   0.1155980), wk =   0.0208333
        k(   55) = (   0.1666667   0.3849002   0.1926634), wk =   0.0208333
        k(   56) = (   0.1666667   0.3849002   0.2697287), wk =   0.0208333
        k(   57) = (   0.1666667   0.4811252   0.0385327), wk =   0.0208333
        k(   58) = (   0.1666667   0.4811252   0.1155980), wk =   0.0208333
        k(   59) = (   0.1666667   0.4811252   0.1926634), wk =   0.0208333
        k(   60) = (   0.1666667   0.4811252   0.2697287), wk =   0.0208333
        k(   61) = (   0.1666667   0.5773503   0.0385327), wk =   0.0104167
        k(   62) = (   0.1666667   0.5773503   0.1155980), wk =   0.0104167
        k(   63) = (   0.1666667   0.5773503   0.1926634), wk =   0.0104167
        k(   64) = (   0.1666667   0.5773503   0.2697287), wk =   0.0104167
        k(   65) = (   0.2500000   0.4330127   0.0385327), wk =   0.0104167
        k(   66) = (   0.2500000   0.4330127   0.1155980), wk =   0.0104167
        k(   67) = (   0.2500000   0.4330127   0.1926634), wk =   0.0104167
        k(   68) = (   0.2500000   0.4330127   0.2697287), wk =   0.0104167
        k(   69) = (   0.2500000   0.5292377   0.0385327), wk =   0.0208333
        k(   70) = (   0.2500000   0.5292377   0.1155980), wk =   0.0208333
        k(   71) = (   0.2500000   0.5292377   0.1926634), wk =   0.0208333
        k(   72) = (   0.2500000   0.5292377   0.2697287), wk =   0.0208333
        k(   73) = (   0.3333333   0.5773503   0.0385327), wk =   0.0034722
        k(   74) = (   0.3333333   0.5773503   0.1155980), wk =   0.0034722
        k(   75) = (   0.3333333   0.5773503   0.1926634), wk =   0.0034722
        k(   76) = (   0.3333333   0.5773503   0.2697287), wk =   0.0034722

     Dense  grid:    17009 G-vectors     FFT dimensions: (  30,  30,  48)

     Smooth grid:     5955 G-vectors     FFT dimensions: (  24,  24,  36)

     Estimated max dynamical RAM per process >      61.16 MB

     Estimated total dynamical RAM >     114.02 MB

     Check: negative core charge=   -0.000020
     Generating pointlists ...
     new r_m :   0.4107 (alat units)  1.9362 (a.u.) for type    1

     Initial potential from superposition of free atoms

     starting charge   31.99999, renormalised to   34.00000
     Starting wfcs are   26 randomized atomic wfcs

     total cpu time spent up to now is        1.3 secs

     Self-consistent Calculation

     iteration #  1     ecut=    45.00 Ry     beta= 0.70
     Davidson diagonalization with overlap
     ethr =  1.00E-02,  avg # of iterations =  2.5

     total cpu time spent up to now is        4.0 secs

     total energy              =    -589.76932738 Ry
     estimated scf accuracy    <      18.71263314 Ry

     total magnetization       =     6.00 Bohr mag/cell
     absolute magnetization    =     6.56 Bohr mag/cell

     iteration #  2     ecut=    45.00 Ry     beta= 0.70
     Davidson diagonalization with overlap
     ethr =  1.00E-02,  avg # of iterations =  3.1

     total cpu time spent up to now is        6.4 secs

     total energy              =    -592.02602686 Ry
     estimated scf accuracy    <      27.63962119 Ry

     total magnetization       =     2.00 Bohr mag/cell
     absolute magnetization    =     2.27 Bohr mag/cell

     iteration #  3     ecut=    45.00 Ry     beta= 0.70
     Davidson diagonalization with overlap
     ethr =  1.00E-02,  avg # of iterations =  2.9

     total cpu time spent up to now is        8.6 secs

     total energy              =    -596.88592943 Ry
     estimated scf accuracy    <       0.48467479 Ry

     total magnetization       =     4.43 Bohr mag/cell
     absolute magnetization    =     5.00 Bohr mag/cell

     iteration #  4     ecut=    45.00 Ry     beta= 0.70
     Davidson diagonalization with overlap
     ethr =  1.43E-03,  avg # of iterations =  1.5

     total cpu time spent up to now is       10.5 secs

     total energy              =    -596.97176012 Ry
     estimated scf accuracy    <       0.02705906 Ry

     total magnetization       =     3.52 Bohr mag/cell
     absolute magnetization    =     4.07 Bohr mag/cell

     iteration #  5     ecut=    45.00 Ry     beta= 0.70
     Davidson diagonalization with overlap
     ethr =  7.96E-05,  avg # of iterations =  1.8

     total cpu time spent up to now is       12.2 secs

     total energy              =    -596.97754133 Ry
     estimated scf accuracy    <       0.00102524 Ry

     total magnetization       =     3.32 Bohr mag/cell
     absolute magnetization    =     3.77 Bohr mag/cell

     iteration #  6     ecut=    45.00 Ry     beta= 0.70
     Davidson diagonalization with overlap
     ethr =  3.02E-06,  avg # of iterations =  2.5

     total cpu time spent up to now is       14.2 secs

     total energy              =    -596.97791951 Ry
     estimated scf accuracy    <       0.00039929 Ry

     total magnetization       =     3.35 Bohr mag/cell
     absolute magnetization    =     3.76 Bohr mag/cell

     iteration #  7     ecut=    45.00 Ry     beta= 0.70
     Davidson diagonalization with overlap
     ethr =  1.17E-06,  avg # of iterations =  2.0

     total cpu time spent up to now is       16.3 secs

     total energy              =    -596.97808635 Ry
     estimated scf accuracy    <       0.00008516 Ry

     total magnetization       =     3.34 Bohr mag/cell
     absolute magnetization    =     3.71 Bohr mag/cell

     iteration #  8     ecut=    45.00 Ry     beta= 0.70
     Davidson diagonalization with overlap
     ethr =  2.50E-07,  avg # of iterations =  2.0

     total cpu time spent up to now is       18.1 secs

     total energy              =    -596.97810144 Ry
     estimated scf accuracy    <       0.00000018 Ry

     total magnetization       =     3.34 Bohr mag/cell
     absolute magnetization    =     3.71 Bohr mag/cell

     iteration #  9     ecut=    45.00 Ry     beta= 0.70
     Davidson diagonalization with overlap
     ethr =  5.39E-10,  avg # of iterations =  3.9

     total cpu time spent up to now is       20.5 secs

     total energy              =    -596.97810146 Ry
     estimated scf accuracy    <       0.00000118 Ry

     total magnetization       =     3.34 Bohr mag/cell
     absolute magnetization    =     3.71 Bohr mag/cell

     iteration # 10     ecut=    45.00 Ry     beta= 0.70
     Davidson diagonalization with overlap
     ethr =  5.39E-10,  avg # of iterations =  3.0

     Magnetic moment per site  (integrated on atomic sphere of radius R)
     atom   1 (R=0.411)  charge= 15.5960  magn=  1.7533
     atom   2 (R=0.411)  charge= 15.5960  magn=  1.7533

     total cpu time spent up to now is       23.0 secs

     End of self-consistent calculation

     Number of k-points >= 100: set verbosity='high' to print the bands.

     the Fermi energy is    18.3591 ev

!    total energy              =    -596.97810168 Ry
     estimated scf accuracy    <          8.0E-09 Ry
     smearing contrib. (-TS)   =       0.00113418 Ry
     internal energy E=F+TS    =    -596.97923586 Ry

     The total energy is F=E-TS. E is the sum of the following terms:
     one-electron contribution =    -310.30509267 Ry
     hartree contribution      =     176.99042004 Ry
     xc contribution           =     -65.36121553 Ry
     ewald contribution        =    -398.30334769 Ry

     total magnetization       =     3.34 Bohr mag/cell
     absolute magnetization    =     3.71 Bohr mag/cell

     convergence has been achieved in  10 iterations

     Writing output data file /home/pietro/tmp/co.save/

     init_run     :      1.15s CPU      1.17s WALL (       1 calls)
     electrons    :     21.56s CPU     21.69s WALL (       1 calls)

     Called by init_run:
     wfcinit      :      0.82s CPU      0.84s WALL (       1 calls)
     potinit      :      0.06s CPU      0.06s WALL (       1 calls)
     hinit0       :      0.22s CPU      0.22s WALL (       1 calls)

     Called by electrons:
     c_bands      :     17.33s CPU     17.44s WALL (      10 calls)
     sum_band     :      3.45s CPU      3.47s WALL (      10 calls)
     v_of_rho     :      0.44s CPU      0.44s WALL (      11 calls)
     newd         :      0.35s CPU      0.36s WALL (      11 calls)
     mix_rho      :      0.04s CPU      0.04s WALL (      10 calls)

     Called by c_bands:
     init_us_2    :      0.27s CPU      0.27s WALL (    1596 calls)
     cegterg      :     15.50s CPU     15.61s WALL (     760 calls)

     Called by *egterg:
     cdiaghg      :      0.84s CPU      0.85s WALL (    2662 calls)
     h_psi        :     13.61s CPU     13.71s WALL (    2738 calls)
     s_psi        :      0.29s CPU      0.29s WALL (    2738 calls)
     g_psi        :      0.08s CPU      0.08s WALL (    1902 calls)

     Called by h_psi:
     h_psi:calbec :      0.34s CPU      0.34s WALL (    2738 calls)
     vloc_psi     :     12.92s CPU     13.00s WALL (    2738 calls)
     add_vuspsi   :      0.30s CPU      0.30s WALL (    2738 calls)

     General routines
     calbec       :      0.47s CPU      0.47s WALL (    3498 calls)
     fft          :      0.16s CPU      0.16s WALL (     269 calls)
     ffts         :      0.01s CPU      0.01s WALL (      42 calls)
     fftw         :     13.58s CPU     13.67s WALL (  102982 calls)
     interpolate  :      0.02s CPU      0.02s WALL (      22 calls)

     Parallel routines

     PWSCF        :     22.89s CPU     23.04s WALL


   This run was terminated on:  10:29: 9   7May2021            

=------------------------------------------------------------------------------=
   JOB DONE.
=------------------------------------------------------------------------------=
