
     Program PWSCF v.6.7GPU starts on 18Apr2021 at 22: 1:57 

     This program is part of the open-source Quantum ESPRESSO suite
     for quantum simulation of materials; please cite
         "P. Giannozzi et al., J. Phys.:Condens. Matter 21 395502 (2009);
         "P. Giannozzi et al., J. Phys.:Condens. Matter 29 465901 (2017);
         "P. Giannozzi et al., J. Chem. Phys. 152 154105 (2020);
          URL http://www.quantum-espresso.org", 
     in publications or presentations arising from this work. More details at
     http://www.quantum-espresso.org/quote

     Parallel version (MPI & OpenMP), running on       2 processor cores
     Number of MPI processes:                 2
     Threads/MPI process:                     1

     MPI processes distributed on     1 nodes
     K-points division:     npool     =       2
     Waiting for input...
     Reading input from standard input

     Current dimensions of program PWSCF are:
     Max number of different atomic species (ntypx) = 10
     Max number of k-points (npk) =  40000
     Max angular momentum in pseudopotentials (lmaxx) =  3

     Subspace diagonalization in iterative solution of the eigenvalue problem:
     a serial algorithm will be used


     G-vector sticks info
     --------------------
     sticks:   dense  smooth     PW     G-vecs:    dense   smooth      PW
     Sum        1501     487    159                36753     6963    1253

     Using Slab Decomposition



     bravais-lattice index     =            3
     lattice parameter (alat)  =       5.6000  a.u.
     unit-cell volume          =      87.8080 (a.u.)^3
     number of atoms/cell      =            1
     number of atomic types    =            1
     number of electrons       =        16.00
     number of Kohn-Sham states=           12
     kinetic-energy cutoff     =      70.0000  Ry
     charge density cutoff     =     850.0000  Ry
     scf convergence threshold =      1.0E-08
     mixing beta               =       0.7000
     number of iterations used =            8  plain     mixing
     Exchange-correlation= LDA
                           (   1   1   0   0   0   0   0)

     celldm(1)=   5.600000  celldm(2)=   0.000000  celldm(3)=   0.000000
     celldm(4)=   0.000000  celldm(5)=   0.000000  celldm(6)=   0.000000

     crystal axes: (cart. coord. in units of alat)
               a(1) = (   0.500000   0.500000   0.500000 )  
               a(2) = (  -0.500000   0.500000   0.500000 )  
               a(3) = (  -0.500000  -0.500000   0.500000 )  

     reciprocal axes: (cart. coord. in units 2 pi/alat)
               b(1) = (  1.000000  0.000000  1.000000 )  
               b(2) = ( -1.000000  1.000000  0.000000 )  
               b(3) = (  0.000000 -1.000000  1.000000 )  


     PseudoPot. # 1 for Fe read from file:
     /home/pietro/repositories/materials-for-max-qe2021-online-school/pseudo/Fe.pz-spn-rrkjus_psl.0.2.1.UPF
     MD5 check sum: 3cbc4c6ff80f64c0ae98e6ac432cb3b7
     Pseudo is Ultrasoft + core correction, Zval = 16.0
     Generated using "atomic" code by A. Dal Corso  v.5.0.2 svn rev. 9415
     Using radial grid of 1191 points,  6 beta functions with: 
                l(1) =   0
                l(2) =   0
                l(3) =   1
                l(4) =   1
                l(5) =   2
                l(6) =   2
     Q(r) pseudized with 0 coefficients 


     atomic species   valence    mass     pseudopotential
        Fe            16.00    55.84500     Fe( 1.00)

     Starting magnetic structure 
     atomic species   magnetization
        Fe           0.700

     48 Sym. Ops., with inversion, found



   Cartesian axes

     site n.     atom                  positions (alat units)
         1           Fe  tau(   1) = (   0.0000000   0.0000000   0.0000000  )

     number of k points=    44  Marzari-Vanderbilt smearing, width (Ry)=  0.0200
                       cart. coord. in units 2pi/alat
        k(    1) = (   0.0000000   0.0000000   0.1000000), wk =   0.0060000
        k(    2) = (   0.0000000  -0.1000000   0.2000000), wk =   0.0240000
        k(    3) = (   0.0000000  -0.2000000   0.3000000), wk =   0.0240000
        k(    4) = (   0.0000000  -0.3000000   0.4000000), wk =   0.0240000
        k(    5) = (   0.0000000  -0.4000000   0.5000000), wk =   0.0240000
        k(    6) = (  -0.1000000   0.1000000   0.1000000), wk =   0.0080000
        k(    7) = (  -0.1000000  -0.1000000   0.3000000), wk =   0.0240000
        k(    8) = (  -0.1000000  -0.2000000   0.4000000), wk =   0.0480000
        k(    9) = (  -0.1000000  -0.3000000   0.5000000), wk =   0.0480000
        k(   10) = (  -0.1000000   0.6000000  -0.4000000), wk =   0.0240000
        k(   11) = (  -0.2000000   0.2000000   0.1000000), wk =   0.0240000
        k(   12) = (  -0.2000000  -0.2000000   0.5000000), wk =   0.0240000
        k(   13) = (  -0.2000000   0.7000000  -0.4000000), wk =   0.0480000
        k(   14) = (  -0.3000000   0.3000000   0.1000000), wk =   0.0240000
        k(   15) = (  -0.3000000   0.2000000   0.2000000), wk =   0.0240000
        k(   16) = (  -0.3000000   0.7000000  -0.3000000), wk =   0.0080000
        k(   17) = (  -0.4000000   0.4000000   0.1000000), wk =   0.0240000
        k(   18) = (  -0.4000000   0.3000000   0.2000000), wk =   0.0480000
        k(   19) = (   0.5000000  -0.5000000   0.1000000), wk =   0.0120000
        k(   20) = (   0.5000000  -0.6000000   0.2000000), wk =   0.0480000
        k(   21) = (   0.5000000  -0.7000000   0.3000000), wk =   0.0240000
        k(   22) = (   0.4000000  -0.6000000   0.3000000), wk =   0.0240000
        k(   23) = (   0.0000000   0.0000000   0.3000000), wk =   0.0060000
        k(   24) = (   0.0000000  -0.1000000   0.4000000), wk =   0.0240000
        k(   25) = (   0.0000000  -0.2000000   0.5000000), wk =   0.0240000
        k(   26) = (   0.0000000  -0.3000000   0.6000000), wk =   0.0240000
        k(   27) = (  -0.1000000  -0.1000000   0.5000000), wk =   0.0240000
        k(   28) = (  -0.1000000  -0.2000000   0.6000000), wk =   0.0480000
        k(   29) = (  -0.1000000   0.7000000  -0.3000000), wk =   0.0240000
        k(   30) = (  -0.2000000   0.8000000  -0.3000000), wk =   0.0240000
        k(   31) = (  -0.3000000   0.3000000   0.3000000), wk =   0.0080000
        k(   32) = (   0.6000000  -0.6000000   0.3000000), wk =   0.0240000
        k(   33) = (   0.5000000  -0.5000000   0.3000000), wk =   0.0120000
        k(   34) = (   0.5000000  -0.6000000   0.4000000), wk =   0.0240000
        k(   35) = (   0.0000000   0.0000000   0.5000000), wk =   0.0060000
        k(   36) = (   0.0000000  -0.1000000   0.6000000), wk =   0.0240000
        k(   37) = (   0.0000000  -0.2000000   0.7000000), wk =   0.0240000
        k(   38) = (  -0.1000000  -0.1000000   0.7000000), wk =   0.0240000
        k(   39) = (  -0.1000000   0.8000000  -0.2000000), wk =   0.0240000
        k(   40) = (   0.5000000  -0.5000000   0.5000000), wk =   0.0020000
        k(   41) = (   0.0000000   0.0000000   0.7000000), wk =   0.0060000
        k(   42) = (   0.0000000  -0.1000000   0.8000000), wk =   0.0240000
        k(   43) = (  -0.1000000   0.9000000  -0.1000000), wk =   0.0080000
        k(   44) = (   0.0000000   0.0000000   0.9000000), wk =   0.0060000

     Dense  grid:    36753 G-vectors     FFT dimensions: (  45,  45,  45)

     Smooth grid:     6963 G-vectors     FFT dimensions: (  25,  25,  25)

     Estimated max dynamical RAM per process >      99.01 MB

     Estimated total dynamical RAM >     180.07 MB

     Check: negative core charge=   -0.000010
     Generating pointlists ...
     new r_m :   0.3572 (alat units)  2.0005 (a.u.) for type    1

     Initial potential from superposition of free atoms

     starting charge   15.99965, renormalised to   16.00000
     Starting wfcs are   13 randomized atomic wfcs

     total cpu time spent up to now is        0.9 secs

     Self-consistent Calculation

     iteration #  1     ecut=    70.00 Ry     beta= 0.70
     Davidson diagonalization with overlap
     ethr =  1.00E-02,  avg # of iterations =  3.0

     negative rho (up, down):  0.000E+00 7.848E-05

     total cpu time spent up to now is        2.2 secs

     total energy              =    -253.95140326 Ry
     estimated scf accuracy    <       1.48160938 Ry

     total magnetization       =     3.86 Bohr mag/cell
     absolute magnetization    =     3.92 Bohr mag/cell

     iteration #  2     ecut=    70.00 Ry     beta= 0.70
     Davidson diagonalization with overlap
     ethr =  9.26E-03,  avg # of iterations =  1.3

     negative rho (up, down):  0.000E+00 8.155E-05

     total cpu time spent up to now is        3.6 secs

     total energy              =    -254.08975529 Ry
     estimated scf accuracy    <       0.40376397 Ry

     total magnetization       =     3.03 Bohr mag/cell
     absolute magnetization    =     3.16 Bohr mag/cell

     iteration #  3     ecut=    70.00 Ry     beta= 0.70
     Davidson diagonalization with overlap
     ethr =  2.52E-03,  avg # of iterations =  2.0

     negative rho (up, down):  0.000E+00 8.771E-05

     total cpu time spent up to now is        4.5 secs

     total energy              =    -254.12055094 Ry
     estimated scf accuracy    <       0.61136071 Ry

     total magnetization       =     2.63 Bohr mag/cell
     absolute magnetization    =     2.74 Bohr mag/cell

     iteration #  4     ecut=    70.00 Ry     beta= 0.70
     Davidson diagonalization with overlap
     ethr =  2.52E-03,  avg # of iterations =  2.0

     negative rho (up, down):  0.000E+00 6.851E-05

     total cpu time spent up to now is        5.4 secs

     total energy              =    -254.21221526 Ry
     estimated scf accuracy    <       0.00128649 Ry

     total magnetization       =     2.43 Bohr mag/cell
     absolute magnetization    =     2.55 Bohr mag/cell

     iteration #  5     ecut=    70.00 Ry     beta= 0.70
     Davidson diagonalization with overlap
     ethr =  8.04E-06,  avg # of iterations =  5.7

     negative rho (up, down):  0.000E+00 6.586E-05

     total cpu time spent up to now is        6.7 secs

     total energy              =    -254.21414624 Ry
     estimated scf accuracy    <       0.00094065 Ry

     total magnetization       =     2.43 Bohr mag/cell
     absolute magnetization    =     2.53 Bohr mag/cell

     iteration #  6     ecut=    70.00 Ry     beta= 0.70
     Davidson diagonalization with overlap
     ethr =  5.88E-06,  avg # of iterations =  1.5

     negative rho (up, down):  0.000E+00 5.863E-05

     total cpu time spent up to now is        7.8 secs

     total energy              =    -254.21419161 Ry
     estimated scf accuracy    <       0.00014351 Ry

     total magnetization       =     2.42 Bohr mag/cell
     absolute magnetization    =     2.51 Bohr mag/cell

     iteration #  7     ecut=    70.00 Ry     beta= 0.70
     Davidson diagonalization with overlap
     ethr =  8.97E-07,  avg # of iterations =  2.0

     negative rho (up, down):  0.000E+00 5.913E-05

     total cpu time spent up to now is        8.7 secs

     total energy              =    -254.21423693 Ry
     estimated scf accuracy    <       0.00001537 Ry

     total magnetization       =     2.39 Bohr mag/cell
     absolute magnetization    =     2.48 Bohr mag/cell

     iteration #  8     ecut=    70.00 Ry     beta= 0.70
     Davidson diagonalization with overlap
     ethr =  9.61E-08,  avg # of iterations =  3.0

     negative rho (up, down):  0.000E+00 5.908E-05

     total cpu time spent up to now is        9.7 secs

     total energy              =    -254.21424245 Ry
     estimated scf accuracy    <       0.00000619 Ry

     total magnetization       =     2.39 Bohr mag/cell
     absolute magnetization    =     2.48 Bohr mag/cell

     iteration #  9     ecut=    70.00 Ry     beta= 0.70
     Davidson diagonalization with overlap
     ethr =  3.87E-08,  avg # of iterations =  2.0

     negative rho (up, down):  0.000E+00 5.903E-05

     total cpu time spent up to now is       10.7 secs

     total energy              =    -254.21424373 Ry
     estimated scf accuracy    <       0.00000002 Ry

     total magnetization       =     2.39 Bohr mag/cell
     absolute magnetization    =     2.48 Bohr mag/cell

     iteration # 10     ecut=    70.00 Ry     beta= 0.70
     Davidson diagonalization with overlap
     ethr =  1.41E-10,  avg # of iterations =  5.7

     negative rho (up, down):  0.000E+00 5.899E-05

     Magnetic moment per site  (integrated on atomic sphere of radius R)
     atom   1 (R=0.357)  charge= 14.5137  magn=  2.4217

     total cpu time spent up to now is       12.3 secs

     End of self-consistent calculation

 ------ SPIN UP ------------


          k = 0.0000 0.0000 0.1000 (   903 PWs)   bands (ev):

   -72.1790 -38.4571 -38.4528 -38.4528   7.3731  12.9470  12.9470  12.9952
    13.9958  14.1003  37.2833  38.1873

          k = 0.0000-0.1000 0.2000 (   881 PWs)   bands (ev):

   -72.1707 -38.5026 -38.4691 -38.4530   8.0947  12.7946  12.9222  13.3377
    13.8284  14.1493  33.8572  36.4780

          k = 0.0000-0.2000 0.3000 (   876 PWs)   bands (ev):

   -72.1574 -38.5794 -38.4958 -38.4524   9.3552  12.5325  12.8414  13.8107
    13.9588  14.2067  29.3283  35.2592

          k = 0.0000-0.3000 0.4000 (   868 PWs)   bands (ev):

   -72.1440 -38.6557 -38.5222 -38.4516  10.4733  12.2791  13.2136  13.9960
    14.3856  14.6474  25.0561  32.9069

          k = 0.0000-0.4000 0.5000 (   856 PWs)   bands (ev):

   -72.1357 -38.7023 -38.5382 -38.4509  10.7607  12.1267  13.8062  14.0537
    15.1163  15.4867  21.7752  32.5043

          k =-0.1000 0.1000 0.1000 (   884 PWs)   bands (ev):

   -72.1748 -38.4885 -38.4525 -38.4525   7.7394  12.8434  12.8434  13.2708
    14.0242  14.0242  35.8042  35.8042

          k =-0.1000-0.1000 0.3000 (   880 PWs)   bands (ev):

   -72.1601 -38.5550 -38.4873 -38.4646   9.0841  12.7348  12.7509  13.6610
    13.8049  14.2637  31.5600  32.4562

          k =-0.1000-0.2000 0.4000 (   866 PWs)   bands (ev):

   -72.1468 -38.6222 -38.5175 -38.4669  10.3460  12.4509  12.7018  13.7505
    14.2979  14.7189  27.4360  30.3913

          k =-0.1000-0.3000 0.5000 (   869 PWs)   bands (ev):

   -72.1362 -38.6769 -38.5446 -38.4668  10.9864  12.2771  13.0140  13.9430
    14.5972  15.9671  23.4673  29.2386

          k =-0.1000 0.6000-0.4000 (   860 PWs)   bands (ev):

   -72.1321 -38.6972 -38.5546 -38.4665  11.0418  12.2205  13.2423  13.9674
    14.8467  17.2106  21.2671  28.8221

          k =-0.2000 0.2000 0.1000 (   876 PWs)   bands (ev):

   -72.1638 -38.5514 -38.4744 -38.4522   8.7661  12.5961  12.7252  13.8314
    13.9300  14.0843  31.6172  33.9203

          k =-0.2000-0.2000 0.5000 (   869 PWs)   bands (ev):

   -72.1363 -38.6564 -38.5537 -38.4766  11.2562  12.1798  12.6916  13.8512
    14.4172  16.1607  25.8154  26.2975

          k =-0.2000 0.7000-0.4000 (   868 PWs)   bands (ev):

   -72.1298 -38.6703 -38.5861 -38.4793  11.5343  12.1925  12.6440  14.0319
    14.5365  18.2874  22.3884  25.3087

          k =-0.3000 0.3000 0.1000 (   872 PWs)   bands (ev):

   -72.1503 -38.6241 -38.5058 -38.4526  10.0927  12.3204  12.7683  13.9699
    14.1481  14.6129  27.1723  32.3170

          k =-0.3000 0.2000 0.2000 (   870 PWs)   bands (ev):

   -72.1527 -38.6091 -38.4904 -38.4647   9.9512  12.4161  12.4284  13.9428
    14.1526  14.6588  29.4930  30.1449

          k =-0.3000 0.7000-0.3000 (   871 PWs)   bands (ev):

   -72.1274 -38.6358 -38.6358 -38.4827  11.9271  12.2177  12.2177  14.3116
    14.3116  21.0184  21.0184  23.0193

          k =-0.4000 0.4000 0.1000 (   864 PWs)   bands (ev):

   -72.1394 -38.6819 -38.5317 -38.4525  10.7691  12.1129  13.6467  14.0800
    14.2001  15.5869  23.2550  31.2423

          k =-0.4000 0.3000 0.2000 (   869 PWs)   bands (ev):

   -72.1416 -38.6560 -38.5255 -38.4691  11.0174  12.1708  12.5926  14.0176
    14.2331  15.8390  25.5151  28.4692

          k = 0.5000-0.5000 0.1000 (   858 PWs)   bands (ev):

   -72.1352 -38.7036 -38.5415 -38.4525  10.8383  12.0365  14.0950  14.2210
    14.3240  16.4895  21.1970  30.8635

          k = 0.5000-0.6000 0.2000 (   864 PWs)   bands (ev):

   -72.1348 -38.6798 -38.5530 -38.4705  11.2141  12.0527  13.2367  14.1073
    14.3076  17.4706  22.0662  27.7040

          k = 0.5000-0.7000 0.3000 (   859 PWs)   bands (ev):

   -72.1346 -38.6598 -38.5637 -38.4813  11.5860  12.1107  12.5771  14.1020
    14.2953  17.7569  24.1278  24.7614

          k = 0.4000-0.6000 0.3000 (   862 PWs)   bands (ev):

   -72.1319 -38.6490 -38.5925 -38.4848  11.6509  12.1388  12.6569  14.1781
    14.2974  19.7533  21.6240  24.1538

          k = 0.0000 0.0000 0.3000 (   883 PWs)   bands (ev):

   -72.1628 -38.5126 -38.4862 -38.4862   8.7756  13.0011  13.0011  13.3524
    13.4308  14.3175  33.6641  34.6535

          k = 0.0000-0.1000 0.4000 (   872 PWs)   bands (ev):

   -72.1501 -38.5758 -38.5134 -38.4913   9.9347  12.7916  12.8768  13.4103
    13.8873  14.5323  29.8662  32.5717

          k = 0.0000-0.2000 0.5000 (   866 PWs)   bands (ev):

   -72.1373 -38.6467 -38.5403 -38.4888  10.9229  12.5659  12.6703  13.7286
    14.5859  15.2609  25.5540  30.9080

          k = 0.0000-0.3000 0.6000 (   860 PWs)   bands (ev):

   -72.1294 -38.6901 -38.5569 -38.4871  11.1412  12.5406  12.7327  13.7914
    15.0725  17.0076  22.0527  29.9396

          k =-0.1000-0.1000 0.5000 (   872 PWs)   bands (ev):

   -72.1378 -38.6212 -38.5451 -38.5054  10.9284  12.3630  12.9878  13.5201
    14.3214  15.2453  28.0255  28.4400

          k =-0.1000-0.2000 0.6000 (   864 PWs)   bands (ev):

   -72.1278 -38.6636 -38.5748 -38.5061  11.4440  12.1487  12.8302  13.8035
    14.7197  17.0156  24.1340  27.0757

          k =-0.1000 0.7000-0.3000 (   863 PWs)   bands (ev):

   -72.1239 -38.6803 -38.5864 -38.5056  11.4509  12.2862  12.6700  13.8790
    14.9375  18.8653  21.5440  26.6360

          k =-0.2000 0.8000-0.3000 (   872 PWs)   bands (ev):

   -72.1219 -38.6588 -38.6187 -38.5102  11.8543  11.8633  12.5993  14.2148
    14.6454  19.6053  22.8596  23.7732

          k =-0.3000 0.3000 0.3000 (   869 PWs)   bands (ev):

   -72.1437 -38.6473 -38.4944 -38.4944  11.1276  12.1666  12.1666  14.1258
    14.1258  15.8508  27.9397  27.9397

          k = 0.6000-0.6000 0.3000 (   867 PWs)   bands (ev):

   -72.1364 -38.6580 -38.5384 -38.4978  11.6633  12.0250  12.4942  14.1661
    14.2134  17.5730  24.1641  26.9719

          k = 0.5000-0.5000 0.3000 (   866 PWs)   bands (ev):

   -72.1336 -38.6545 -38.5630 -38.4990  11.6133  11.9808  12.8947  14.1937
    14.2371  19.2931  21.6220  26.6427

          k = 0.5000-0.6000 0.4000 (   870 PWs)   bands (ev):

   -72.1332 -38.6295 -38.5727 -38.5197  11.8708  12.1363  12.4299  14.2207
    14.2434  19.9716  23.0625  23.8466

          k = 0.0000 0.0000 0.5000 (   875 PWs)   bands (ev):

   -72.1383 -38.5828 -38.5418 -38.5418  10.7888  12.5031  13.3236  13.3236
    13.9401  15.0756  30.2768  30.2769

          k = 0.0000-0.1000 0.6000 (   868 PWs)   bands (ev):

   -72.1265 -38.6325 -38.5699 -38.5483  11.3623  12.0249  13.3573  13.6465
    14.5005  16.3817  26.4589  28.4886

          k = 0.0000-0.2000 0.7000 (   864 PWs)   bands (ev):

   -72.1192 -38.6705 -38.5873 -38.5447  11.4405  11.8737  13.2887  13.7841
    15.0021  18.7001  22.7323  27.4559

          k =-0.1000-0.1000 0.7000 (   861 PWs)   bands (ev):

   -72.1174 -38.6514 -38.6045 -38.5578  11.5099  11.6436  13.4196  14.0926
    14.7663  18.4901  25.0279  25.3578

          k =-0.1000 0.8000-0.2000 (   866 PWs)   bands (ev):

   -72.1139 -38.6594 -38.6215 -38.5575  11.4581  11.5791  13.3701  14.3205
    14.8983  20.8923  22.1915  24.7384

          k = 0.5000-0.5000 0.5000 (   868 PWs)   bands (ev):

   -72.1327 -38.5759 -38.5759 -38.5759  12.1639  12.1639  12.1639  14.2471
    14.2471  22.6987  22.6987  22.6987

          k = 0.0000 0.0000 0.7000 (   868 PWs)   bands (ev):

   -72.1157 -38.6263 -38.5992 -38.5992  11.3618  11.5777  14.0387  14.0387
    14.5392  18.0618  26.5642  26.5642

          k = 0.0000-0.1000 0.8000 (   859 PWs)   bands (ev):

   -72.1090 -38.6506 -38.6172 -38.6017  11.2538  11.3010  14.1797  14.3396
    14.9332  20.5372  23.7983  25.4317

          k =-0.1000 0.9000-0.1000 (   862 PWs)   bands (ev):

   -72.1058 -38.6421 -38.6421 -38.6068  11.1547  11.1547  14.2644  14.8462
    14.8462  22.9906  22.9906  23.6115

          k = 0.0000 0.0000 0.9000 (   856 PWs)   bands (ev):

   -72.1026 -38.6395 -38.6356 -38.6356  11.0099  11.0139  14.8244  14.8244
    14.9146  22.6046  24.2097  24.2097

 ------ SPIN DOWN ----------


          k = 0.0000 0.0000 0.1000 (   903 PWs)   bands (ev):

   -69.4039 -35.7455 -35.7406 -35.7406   7.7368  14.9777  14.9777  15.0381
    16.4498  16.5836  37.5000  38.3985

          k = 0.0000-0.1000 0.2000 (   881 PWs)   bands (ev):

   -69.3947 -35.7971 -35.7588 -35.7411   8.4678  14.7912  14.9200  15.4177
    16.2281  16.6418  34.4355  36.8422

          k = 0.0000-0.2000 0.3000 (   876 PWs)   bands (ev):

   -69.3800 -35.8839 -35.7885 -35.7406   9.7956  14.4741  14.7067  16.1153
    16.1609  16.7015  30.1512  34.8286

          k = 0.0000-0.3000 0.4000 (   868 PWs)   bands (ev):

   -69.3652 -35.9698 -35.8180 -35.7398  11.2854  14.1707  14.6687  16.3075
    16.7921  16.9030  26.0906  33.2433

          k = 0.0000-0.4000 0.5000 (   856 PWs)   bands (ev):

   -69.3560 -36.0223 -35.8359 -35.7392  12.0632  13.9895  15.2713  16.4040
    17.0620  17.4508  23.1241  32.3805

          k =-0.1000 0.1000 0.1000 (   884 PWs)   bands (ev):

   -69.3992 -35.7810 -35.7404 -35.7404   8.1068  14.8517  14.8517  15.3395
    16.4844  16.4844  36.2315  36.2315

          k =-0.1000-0.1000 0.3000 (   880 PWs)   bands (ev):

   -69.3829 -35.8563 -35.7792 -35.7541   9.4918  14.6852  14.7120  15.9231
    15.9901  16.7600  32.2746  33.1449

          k =-0.1000-0.2000 0.4000 (   866 PWs)   bands (ev):

   -69.3683 -35.9321 -35.8130 -35.7568  10.9394  14.3399  14.5077  16.0398
    16.6530  16.9570  28.3354  31.1140

          k =-0.1000-0.3000 0.5000 (   869 PWs)   bands (ev):

   -69.3565 -35.9935 -35.8432 -35.7568  12.1373  14.1278  14.5314  16.2465
    16.9279  17.8346  24.5917  29.9524

          k =-0.1000 0.6000-0.4000 (   860 PWs)   bands (ev):

   -69.3520 -36.0164 -35.8544 -35.7566  12.4564  14.0718  14.7631  16.2965
    17.1243  18.6031  22.6637  29.5217

          k =-0.2000 0.2000 0.1000 (   876 PWs)   bands (ev):

   -69.3871 -35.8521 -35.7648 -35.7402   9.1589  14.5504  14.6688  15.9477
    16.3453  16.5612  32.3200  34.4429

          k =-0.2000-0.2000 0.5000 (   869 PWs)   bands (ev):

   -69.3567 -35.9703 -35.8539 -35.7675  12.2337  13.9663  14.4298  16.1366
    16.8078  18.0556  26.8177  27.1095

          k =-0.2000 0.7000-0.4000 (   868 PWs)   bands (ev):

   -69.3495 -35.9858 -35.8903 -35.7705  12.9909  13.9207  14.2645  16.3386
    16.8701  19.7330  23.5531  26.1760

          k =-0.3000 0.3000 0.1000 (   872 PWs)   bands (ev):

   -69.3722 -35.9342 -35.7998 -35.7408  10.6543  14.2158  14.4760  16.3616
    16.6483  16.7674  28.0813  32.8320

          k =-0.3000 0.2000 0.2000 (   870 PWs)   bands (ev):

   -69.3748 -35.9172 -35.7830 -35.7542  10.4235  14.2904  14.3012  16.3513
    16.6362  16.7868  30.2834  30.8746

          k =-0.3000 0.7000-0.3000 (   871 PWs)   bands (ev):

   -69.3468 -35.9465 -35.9465 -35.7743  13.6191  13.8255  13.8255  16.6334
    16.6334  22.2200  22.2200  24.0018

          k =-0.4000 0.4000 0.1000 (   864 PWs)   bands (ev):

   -69.3600 -35.9993 -35.8288 -35.7409  11.8819  13.9658  14.8184  16.4583
    16.7231  17.6014  24.4124  31.7200

          k =-0.4000 0.3000 0.2000 (   869 PWs)   bands (ev):

   -69.3625 -35.9699 -35.8222 -35.7594  11.8640  13.9840  14.1908  16.4222
    16.7318  17.8307  26.4729  29.2256

          k = 0.5000-0.5000 0.1000 (   858 PWs)   bands (ev):

   -69.3554 -36.0238 -35.8397 -35.7409  12.2047  13.8740  15.4040  16.4919
    16.7540  18.0906  22.6347  31.3230

          k = 0.5000-0.6000 0.2000 (   864 PWs)   bands (ev):

   -69.3549 -35.9969 -35.8530 -35.7611  12.5813  13.8445  14.5772  16.5180
    16.7858  19.0219  23.3020  28.4452

          k = 0.5000-0.7000 0.3000 (   859 PWs)   bands (ev):

   -69.3547 -35.9742 -35.8656 -35.7731  12.9234  13.7832  14.0944  16.5190
    16.7711  19.3836  25.1752  25.6092

          k = 0.4000-0.6000 0.3000 (   862 PWs)   bands (ev):

   -69.3517 -35.9620 -35.8980 -35.7770  13.2137  13.7976  14.1283  16.6077
    16.7527  21.0156  22.8458  25.0529

          k = 0.0000 0.0000 0.3000 (   883 PWs)   bands (ev):

   -69.3860 -35.8090 -35.7779 -35.7779   9.1657  14.9972  14.9972  15.4407
    15.7273  16.8222  34.1808  35.3968

          k = 0.0000-0.1000 0.4000 (   872 PWs)   bands (ev):

   -69.3719 -35.8799 -35.8082 -35.7840  10.4182  14.7725  14.8432  15.5725
    16.0346  16.9680  30.6849  33.3761

          k = 0.0000-0.2000 0.5000 (   866 PWs)   bands (ev):

   -69.3578 -35.9594 -35.8383 -35.7814  11.8033  14.3389  14.5967  15.9042
    16.8309  17.3253  26.5459  31.6915

          k = 0.0000-0.3000 0.6000 (   860 PWs)   bands (ev):

   -69.3491 -36.0082 -35.8569 -35.7795  12.5389  14.3313  14.4425  16.0221
    17.4000  18.4054  23.3095  30.6752

          k =-0.1000-0.1000 0.5000 (   872 PWs)   bands (ev):

   -69.3583 -35.9308 -35.8439 -35.7997  11.6734  14.2965  14.9108  15.6421
    16.5638  17.3565  28.9511  29.2228

          k =-0.1000-0.2000 0.6000 (   864 PWs)   bands (ev):

   -69.3473 -35.9781 -35.8772 -35.8005  12.7138  13.8977  14.7292  15.9693
    16.9949  18.6126  25.1662  27.9047

          k =-0.1000 0.7000-0.3000 (   863 PWs)   bands (ev):

   -69.3431 -35.9968 -35.8902 -35.7999  13.0177  13.9058  14.5598  16.0588
    17.2354  20.0647  22.8060  27.4459

          k =-0.2000 0.8000-0.3000 (   872 PWs)   bands (ev):

   -69.3408 -35.9723 -35.9268 -35.8048  13.4193  13.5824  14.4277  16.4172
    16.9044  20.8652  23.9551  24.6741

          k =-0.3000 0.3000 0.3000 (   869 PWs)   bands (ev):

   -69.3648 -35.9601 -35.7877 -35.7877  11.7679  13.9618  13.9618  16.6034
    16.6034  17.8672  28.7638  28.7638

          k = 0.6000-0.6000 0.3000 (   867 PWs)   bands (ev):

   -69.3567 -35.9722 -35.8371 -35.7918  12.8950  13.7674  13.9451  16.6399
    16.7357  19.2554  25.1521  28.1794

          k = 0.5000-0.5000 0.3000 (   866 PWs)   bands (ev):

   -69.3536 -35.9683 -35.8647 -35.7932  13.0870  13.7046  14.2812  16.6674
    16.7750  20.5763  22.8661  27.4793

          k = 0.5000-0.6000 0.4000 (   870 PWs)   bands (ev):

   -69.3531 -35.9400 -35.8760 -35.8163  13.4566  13.7292  13.8830  16.7281
    16.7706  21.2784  24.1336  24.7293

          k = 0.0000 0.0000 0.5000 (   875 PWs)   bands (ev):

   -69.3589 -35.8880 -35.8400 -35.8400  11.4625  14.5633  15.3119  15.3119
    16.1070  17.2743  31.0931  31.0931

          k = 0.0000-0.1000 0.6000 (   868 PWs)   bands (ev):

   -69.3459 -35.9431 -35.8714 -35.8477  12.4799  13.9291  15.3519  15.7000
    16.7344  18.0605  27.3578  29.2663

          k = 0.0000-0.2000 0.7000 (   864 PWs)   bands (ev):

   -69.3378 -35.9854 -35.8909 -35.8438  13.0223  13.5666  15.2747  15.8554
    17.3187  19.9049  23.7988  28.1760

          k =-0.1000-0.1000 0.7000 (   861 PWs)   bands (ev):

   -69.3359 -35.9639 -35.9104 -35.8582  12.9982  13.4626  15.3973  16.2034
    17.0321  19.7395  25.9538  26.1473

          k =-0.1000 0.8000-0.2000 (   866 PWs)   bands (ev):

   -69.3320 -35.9726 -35.9295 -35.8578  13.1825  13.2646  15.3137  16.4733
    17.1830  21.9002  23.2114  25.5433

          k = 0.5000-0.5000 0.5000 (   868 PWs)   bands (ev):

   -69.3525 -35.8797 -35.8797 -35.8797  13.7264  13.7264  13.7264  16.7881
    16.7881  23.7776  23.7776  23.7776

          k = 0.0000 0.0000 0.7000 (   868 PWs)   bands (ev):

   -69.3340 -35.9359 -35.9043 -35.9043  12.8231  13.4327  16.1128  16.1128
    16.7908  19.2818  27.2826  27.2826

          k = 0.0000-0.1000 0.8000 (   859 PWs)   bands (ev):

   -69.3266 -35.9624 -35.9244 -35.9073  12.9244  13.0627  16.3019  16.4610
    17.2394  21.4616  24.5844  26.0673

          k =-0.1000 0.9000-0.1000 (   862 PWs)   bands (ev):

   -69.3231 -35.9526 -35.9526 -35.9127  12.8836  12.8836  16.3835  17.1170
    17.1170  23.7378  23.7378  24.2804

          k = 0.0000 0.0000 0.9000 (   856 PWs)   bands (ev):

   -69.3197 -35.9496 -35.9450 -35.9450  12.7248  12.7583  17.0896  17.0896
    17.2216  23.2409  24.7238  24.7238

     the Fermi energy is    14.9936 ev

!    total energy              =    -254.21424380 Ry
     estimated scf accuracy    <          5.5E-09 Ry
     smearing contrib. (-TS)   =       0.00198728 Ry
     internal energy E=F+TS    =    -254.21623108 Ry

     The total energy is F=E-TS. E is the sum of the following terms:
     one-electron contribution =    -123.34925015 Ry
     hartree contribution      =      69.85820775 Ry
     xc contribution           =     -34.36023099 Ry
     ewald contribution        =    -166.36495769 Ry

     total magnetization       =     2.39 Bohr mag/cell
     absolute magnetization    =     2.48 Bohr mag/cell

     convergence has been achieved in  10 iterations

     Writing output data file ./tempdir/fe.save/

     init_run     :      0.80s CPU      0.82s WALL (       1 calls)
     electrons    :     11.02s CPU     11.39s WALL (       1 calls)

     Called by init_run:
     wfcinit      :      0.25s CPU      0.25s WALL (       1 calls)
     potinit      :      0.05s CPU      0.06s WALL (       1 calls)
     hinit0       :      0.40s CPU      0.40s WALL (       1 calls)

     Called by electrons:
     c_bands      :      7.21s CPU      7.26s WALL (      10 calls)
     sum_band     :      2.70s CPU      2.87s WALL (      10 calls)
     v_of_rho     :      0.20s CPU      0.20s WALL (      11 calls)
     newd         :      0.85s CPU      1.00s WALL (      11 calls)
     mix_rho      :      0.07s CPU      0.08s WALL (      10 calls)

     Called by c_bands:
     init_us_2    :      0.17s CPU      0.17s WALL (     924 calls)
     cegterg      :      6.20s CPU      6.25s WALL (     440 calls)

     Called by *egterg:
     cdiaghg      :      0.20s CPU      0.20s WALL (    1646 calls)
     h_psi        :      5.58s CPU      5.63s WALL (    1690 calls)
     s_psi        :      0.08s CPU      0.08s WALL (    1690 calls)
     g_psi        :      0.03s CPU      0.03s WALL (    1206 calls)

     Called by h_psi:
     h_psi:calbec :      0.12s CPU      0.12s WALL (    1690 calls)
     vloc_psi     :      5.35s CPU      5.39s WALL (    1690 calls)
     add_vuspsi   :      0.09s CPU      0.09s WALL (    1690 calls)

     General routines
     calbec       :      0.15s CPU      0.16s WALL (    2130 calls)
     fft          :      0.18s CPU      0.18s WALL (     115 calls)
     ffts         :      0.01s CPU      0.01s WALL (      42 calls)
     fftw         :      5.69s CPU      5.74s WALL (   33650 calls)
     interpolate  :      0.05s CPU      0.05s WALL (      22 calls)

     Parallel routines

     PWSCF        :     11.89s CPU     12.30s WALL


   This run was terminated on:  22: 2: 9  18Apr2021            

=------------------------------------------------------------------------------=
   JOB DONE.
=------------------------------------------------------------------------------=
