
     Program PWSCF v.6.7GPU starts on 18Apr2021 at 22: 2:25 

     This program is part of the open-source Quantum ESPRESSO suite
     for quantum simulation of materials; please cite
         "P. Giannozzi et al., J. Phys.:Condens. Matter 21 395502 (2009);
         "P. Giannozzi et al., J. Phys.:Condens. Matter 29 465901 (2017);
         "P. Giannozzi et al., J. Chem. Phys. 152 154105 (2020);
          URL http://www.quantum-espresso.org", 
     in publications or presentations arising from this work. More details at
     http://www.quantum-espresso.org/quote

     Parallel version (MPI & OpenMP), running on       2 processor cores
     Number of MPI processes:                 2
     Threads/MPI process:                     1

     MPI processes distributed on     1 nodes
     K-points division:     npool     =       2
     Waiting for input...
     Reading input from standard input

     Current dimensions of program PWSCF are:
     Max number of different atomic species (ntypx) = 10
     Max number of k-points (npk) =  40000
     Max angular momentum in pseudopotentials (lmaxx) =  3

     Subspace diagonalization in iterative solution of the eigenvalue problem:
     a serial algorithm will be used


     G-vector sticks info
     --------------------
     sticks:   dense  smooth     PW     G-vecs:    dense   smooth      PW
     Sum        1605     535    169                40827     7803    1409

     Using Slab Decomposition



     bravais-lattice index     =            3
     lattice parameter (alat)  =       5.8000  a.u.
     unit-cell volume          =      97.5560 (a.u.)^3
     number of atoms/cell      =            1
     number of atomic types    =            1
     number of electrons       =        16.00
     number of Kohn-Sham states=           12
     kinetic-energy cutoff     =      70.0000  Ry
     charge density cutoff     =     850.0000  Ry
     scf convergence threshold =      1.0E-08
     mixing beta               =       0.7000
     number of iterations used =            8  plain     mixing
     Exchange-correlation= LDA
                           (   1   1   0   0   0   0   0)

     celldm(1)=   5.800000  celldm(2)=   0.000000  celldm(3)=   0.000000
     celldm(4)=   0.000000  celldm(5)=   0.000000  celldm(6)=   0.000000

     crystal axes: (cart. coord. in units of alat)
               a(1) = (   0.500000   0.500000   0.500000 )  
               a(2) = (  -0.500000   0.500000   0.500000 )  
               a(3) = (  -0.500000  -0.500000   0.500000 )  

     reciprocal axes: (cart. coord. in units 2 pi/alat)
               b(1) = (  1.000000  0.000000  1.000000 )  
               b(2) = ( -1.000000  1.000000  0.000000 )  
               b(3) = (  0.000000 -1.000000  1.000000 )  


     PseudoPot. # 1 for Fe read from file:
     /home/pietro/repositories/materials-for-max-qe2021-online-school/pseudo/Fe.pz-spn-rrkjus_psl.0.2.1.UPF
     MD5 check sum: 3cbc4c6ff80f64c0ae98e6ac432cb3b7
     Pseudo is Ultrasoft + core correction, Zval = 16.0
     Generated using "atomic" code by A. Dal Corso  v.5.0.2 svn rev. 9415
     Using radial grid of 1191 points,  6 beta functions with: 
                l(1) =   0
                l(2) =   0
                l(3) =   1
                l(4) =   1
                l(5) =   2
                l(6) =   2
     Q(r) pseudized with 0 coefficients 


     atomic species   valence    mass     pseudopotential
        Fe            16.00    55.84500     Fe( 1.00)

     Starting magnetic structure 
     atomic species   magnetization
        Fe           0.700

     48 Sym. Ops., with inversion, found



   Cartesian axes

     site n.     atom                  positions (alat units)
         1           Fe  tau(   1) = (   0.0000000   0.0000000   0.0000000  )

     number of k points=    44  Marzari-Vanderbilt smearing, width (Ry)=  0.0200
                       cart. coord. in units 2pi/alat
        k(    1) = (   0.0000000   0.0000000   0.1000000), wk =   0.0060000
        k(    2) = (   0.0000000  -0.1000000   0.2000000), wk =   0.0240000
        k(    3) = (   0.0000000  -0.2000000   0.3000000), wk =   0.0240000
        k(    4) = (   0.0000000  -0.3000000   0.4000000), wk =   0.0240000
        k(    5) = (   0.0000000  -0.4000000   0.5000000), wk =   0.0240000
        k(    6) = (  -0.1000000   0.1000000   0.1000000), wk =   0.0080000
        k(    7) = (  -0.1000000  -0.1000000   0.3000000), wk =   0.0240000
        k(    8) = (  -0.1000000  -0.2000000   0.4000000), wk =   0.0480000
        k(    9) = (  -0.1000000  -0.3000000   0.5000000), wk =   0.0480000
        k(   10) = (  -0.1000000   0.6000000  -0.4000000), wk =   0.0240000
        k(   11) = (  -0.2000000   0.2000000   0.1000000), wk =   0.0240000
        k(   12) = (  -0.2000000  -0.2000000   0.5000000), wk =   0.0240000
        k(   13) = (  -0.2000000   0.7000000  -0.4000000), wk =   0.0480000
        k(   14) = (  -0.3000000   0.3000000   0.1000000), wk =   0.0240000
        k(   15) = (  -0.3000000   0.2000000   0.2000000), wk =   0.0240000
        k(   16) = (  -0.3000000   0.7000000  -0.3000000), wk =   0.0080000
        k(   17) = (  -0.4000000   0.4000000   0.1000000), wk =   0.0240000
        k(   18) = (  -0.4000000   0.3000000   0.2000000), wk =   0.0480000
        k(   19) = (   0.5000000  -0.5000000   0.1000000), wk =   0.0120000
        k(   20) = (   0.5000000  -0.6000000   0.2000000), wk =   0.0480000
        k(   21) = (   0.5000000  -0.7000000   0.3000000), wk =   0.0240000
        k(   22) = (   0.4000000  -0.6000000   0.3000000), wk =   0.0240000
        k(   23) = (   0.0000000   0.0000000   0.3000000), wk =   0.0060000
        k(   24) = (   0.0000000  -0.1000000   0.4000000), wk =   0.0240000
        k(   25) = (   0.0000000  -0.2000000   0.5000000), wk =   0.0240000
        k(   26) = (   0.0000000  -0.3000000   0.6000000), wk =   0.0240000
        k(   27) = (  -0.1000000  -0.1000000   0.5000000), wk =   0.0240000
        k(   28) = (  -0.1000000  -0.2000000   0.6000000), wk =   0.0480000
        k(   29) = (  -0.1000000   0.7000000  -0.3000000), wk =   0.0240000
        k(   30) = (  -0.2000000   0.8000000  -0.3000000), wk =   0.0240000
        k(   31) = (  -0.3000000   0.3000000   0.3000000), wk =   0.0080000
        k(   32) = (   0.6000000  -0.6000000   0.3000000), wk =   0.0240000
        k(   33) = (   0.5000000  -0.5000000   0.3000000), wk =   0.0120000
        k(   34) = (   0.5000000  -0.6000000   0.4000000), wk =   0.0240000
        k(   35) = (   0.0000000   0.0000000   0.5000000), wk =   0.0060000
        k(   36) = (   0.0000000  -0.1000000   0.6000000), wk =   0.0240000
        k(   37) = (   0.0000000  -0.2000000   0.7000000), wk =   0.0240000
        k(   38) = (  -0.1000000  -0.1000000   0.7000000), wk =   0.0240000
        k(   39) = (  -0.1000000   0.8000000  -0.2000000), wk =   0.0240000
        k(   40) = (   0.5000000  -0.5000000   0.5000000), wk =   0.0020000
        k(   41) = (   0.0000000   0.0000000   0.7000000), wk =   0.0060000
        k(   42) = (   0.0000000  -0.1000000   0.8000000), wk =   0.0240000
        k(   43) = (  -0.1000000   0.9000000  -0.1000000), wk =   0.0080000
        k(   44) = (   0.0000000   0.0000000   0.9000000), wk =   0.0060000

     Dense  grid:    40827 G-vectors     FFT dimensions: (  48,  48,  48)

     Smooth grid:     7803 G-vectors     FFT dimensions: (  27,  27,  27)

     Estimated max dynamical RAM per process >     110.73 MB

     Estimated total dynamical RAM >     201.53 MB

     Check: negative core charge=   -0.000009
     Generating pointlists ...
     new r_m :   0.3572 (alat units)  2.0720 (a.u.) for type    1

     Initial potential from superposition of free atoms

     starting charge   15.99965, renormalised to   16.00000
     Starting wfcs are   13 randomized atomic wfcs

     total cpu time spent up to now is        1.0 secs

     Self-consistent Calculation

     iteration #  1     ecut=    70.00 Ry     beta= 0.70
     Davidson diagonalization with overlap
     ethr =  1.00E-02,  avg # of iterations =  2.9

     negative rho (up, down):  0.000E+00 7.729E-05

     total cpu time spent up to now is        2.3 secs

     total energy              =    -253.92404569 Ry
     estimated scf accuracy    <       1.43715369 Ry

     total magnetization       =     4.01 Bohr mag/cell
     absolute magnetization    =     4.06 Bohr mag/cell

     iteration #  2     ecut=    70.00 Ry     beta= 0.70
     Davidson diagonalization with overlap
     ethr =  8.98E-03,  avg # of iterations =  1.3

     negative rho (up, down):  0.000E+00 7.704E-05

     total cpu time spent up to now is        3.4 secs

     total energy              =    -254.04292628 Ry
     estimated scf accuracy    <       0.46362940 Ry

     total magnetization       =     3.06 Bohr mag/cell
     absolute magnetization    =     3.20 Bohr mag/cell

     iteration #  3     ecut=    70.00 Ry     beta= 0.70
     Davidson diagonalization with overlap
     ethr =  2.90E-03,  avg # of iterations =  2.0

     negative rho (up, down):  0.000E+00 8.650E-05

     total cpu time spent up to now is        4.7 secs

     total energy              =    -254.09228675 Ry
     estimated scf accuracy    <       0.66281302 Ry

     total magnetization       =     2.89 Bohr mag/cell
     absolute magnetization    =     3.00 Bohr mag/cell

     iteration #  4     ecut=    70.00 Ry     beta= 0.70
     Davidson diagonalization with overlap
     ethr =  2.90E-03,  avg # of iterations =  2.0

     negative rho (up, down):  0.000E+00 7.347E-05

     total cpu time spent up to now is        5.8 secs

     total energy              =    -254.19044892 Ry
     estimated scf accuracy    <       0.00116021 Ry

     total magnetization       =     2.62 Bohr mag/cell
     absolute magnetization    =     2.75 Bohr mag/cell

     iteration #  5     ecut=    70.00 Ry     beta= 0.70
     Davidson diagonalization with overlap
     ethr =  7.25E-06,  avg # of iterations =  5.9

     negative rho (up, down):  0.000E+00 7.160E-05

     total cpu time spent up to now is        7.3 secs

     total energy              =    -254.19238927 Ry
     estimated scf accuracy    <       0.00113773 Ry

     total magnetization       =     2.64 Bohr mag/cell
     absolute magnetization    =     2.76 Bohr mag/cell

     iteration #  6     ecut=    70.00 Ry     beta= 0.70
     Davidson diagonalization with overlap
     ethr =  7.11E-06,  avg # of iterations =  1.0

     negative rho (up, down):  0.000E+00 6.678E-05

     total cpu time spent up to now is        8.3 secs

     total energy              =    -254.19236131 Ry
     estimated scf accuracy    <       0.00028536 Ry

     total magnetization       =     2.64 Bohr mag/cell
     absolute magnetization    =     2.76 Bohr mag/cell

     iteration #  7     ecut=    70.00 Ry     beta= 0.70
     Davidson diagonalization with overlap
     ethr =  1.78E-06,  avg # of iterations =  2.3

     negative rho (up, down):  0.000E+00 6.690E-05

     total cpu time spent up to now is        9.4 secs

     total energy              =    -254.19241105 Ry
     estimated scf accuracy    <       0.00000248 Ry

     total magnetization       =     2.64 Bohr mag/cell
     absolute magnetization    =     2.76 Bohr mag/cell

     iteration #  8     ecut=    70.00 Ry     beta= 0.70
     Davidson diagonalization with overlap
     ethr =  1.55E-08,  avg # of iterations =  4.6

     negative rho (up, down):  0.000E+00 6.705E-05

     total cpu time spent up to now is       10.8 secs

     total energy              =    -254.19241320 Ry
     estimated scf accuracy    <       0.00000209 Ry

     total magnetization       =     2.64 Bohr mag/cell
     absolute magnetization    =     2.75 Bohr mag/cell

     iteration #  9     ecut=    70.00 Ry     beta= 0.70
     Davidson diagonalization with overlap
     ethr =  1.31E-08,  avg # of iterations =  1.8

     negative rho (up, down):  0.000E+00 6.719E-05

     total cpu time spent up to now is       11.9 secs

     total energy              =    -254.19241344 Ry
     estimated scf accuracy    <       0.00000006 Ry

     total magnetization       =     2.64 Bohr mag/cell
     absolute magnetization    =     2.75 Bohr mag/cell

     iteration # 10     ecut=    70.00 Ry     beta= 0.70
     Davidson diagonalization with overlap
     ethr =  3.86E-10,  avg # of iterations =  4.2

     negative rho (up, down):  0.000E+00 6.719E-05

     total cpu time spent up to now is       13.3 secs

     total energy              =    -254.19241347 Ry
     estimated scf accuracy    <       0.00000004 Ry

     total magnetization       =     2.64 Bohr mag/cell
     absolute magnetization    =     2.75 Bohr mag/cell

     iteration # 11     ecut=    70.00 Ry     beta= 0.70
     Davidson diagonalization with overlap
     ethr =  2.68E-10,  avg # of iterations =  1.6

     negative rho (up, down):  0.000E+00 6.719E-05

     Magnetic moment per site  (integrated on atomic sphere of radius R)
     atom   1 (R=0.357)  charge= 14.5945  magn=  2.6872

     total cpu time spent up to now is       14.3 secs

     End of self-consistent calculation

 ------ SPIN UP ------------


          k = 0.0000 0.0000 0.1000 (   959 PWs)   bands (ev):

   -74.1342 -40.4550 -40.4525 -40.4525   5.9585  11.0757  11.0757  11.1162
    11.9844  12.0705  34.3158  35.1121

          k = 0.0000-0.1000 0.2000 (   966 PWs)   bands (ev):

   -74.1291 -40.4873 -40.4641 -40.4529   6.6267  10.9485  11.0598  11.4087
    11.8447  12.1105  30.7510  33.3329

          k = 0.0000-0.2000 0.3000 (   973 PWs)   bands (ev):

   -74.1208 -40.5396 -40.4831 -40.4527   7.8104  10.7286  11.0079  11.8238
    11.9376  12.1574  26.3045  31.4145

          k = 0.0000-0.3000 0.4000 (   965 PWs)   bands (ev):

   -74.1125 -40.5913 -40.5015 -40.4520   8.8990  10.5150  11.3588  11.9786
    12.3254  12.5216  22.1911  30.1407

          k = 0.0000-0.4000 0.5000 (   970 PWs)   bands (ev):

   -74.1074 -40.6235 -40.5131 -40.4518   9.2000  10.3861  11.8477  12.0249
    12.9173  13.4745  19.0015  29.1641

          k =-0.1000 0.1000 0.1000 (   965 PWs)   bands (ev):

   -74.1316 -40.4778 -40.4524 -40.4524   6.2971  10.9896  10.9896  11.3514
    12.0073  12.0073  32.7184  32.7184

          k =-0.1000-0.1000 0.3000 (   972 PWs)   bands (ev):

   -74.1225 -40.5231 -40.4769 -40.4610   7.5516  10.9012  10.9227  11.7021
    11.8083  12.2050  28.5562  29.1894

          k =-0.1000-0.2000 0.4000 (   968 PWs)   bands (ev):

   -74.1142 -40.5689 -40.4979 -40.4629   8.7529  10.6698  10.8906  11.7717
    12.2283  12.6034  24.4881  27.3008

          k =-0.1000-0.3000 0.5000 (   968 PWs)   bands (ev):

   -74.1076 -40.6058 -40.5166 -40.4629   9.3894  10.5178  11.1832  11.9320
    12.4888  13.7679  20.6719  26.2198

          k =-0.1000 0.6000-0.4000 (   967 PWs)   bands (ev):

   -74.1051 -40.6199 -40.5239 -40.4626   9.4542  10.4681  11.3813  11.9504
    12.7027  15.0292  18.5028  25.8301

          k =-0.2000 0.2000 0.1000 (   965 PWs)   bands (ev):

   -74.1248 -40.5205 -40.4678 -40.4524   7.2530  10.7828  10.8979  11.8308
    11.9258  12.0560  28.5460  30.8568

          k =-0.2000-0.2000 0.5000 (   966 PWs)   bands (ev):

   -74.1077 -40.5922 -40.5222 -40.4696   9.6157  10.4550  10.8815  11.8548
    12.3296  13.9131  23.0302  23.3058

          k =-0.2000 0.7000-0.4000 (   964 PWs)   bands (ev):

   -74.1037 -40.6016 -40.5443 -40.4716   9.8830  10.4575  10.8603  12.0059
    12.4337  15.9373  19.6701  22.4508

          k =-0.3000 0.3000 0.1000 (   966 PWs)   bands (ev):

   -74.1164 -40.5700 -40.4896 -40.4526   8.5141  10.5505  10.9514  11.9546
    12.1076  12.5041  24.2317  29.3361

          k =-0.3000 0.2000 0.2000 (   967 PWs)   bands (ev):

   -74.1179 -40.5603 -40.4788 -40.4610   8.3657  10.6408  10.6447  11.9347
    12.1103  12.5458  26.5657  27.0103

          k =-0.3000 0.7000-0.3000 (   955 PWs)   bands (ev):

   -74.1021 -40.5775 -40.5775 -40.4740  10.2121  10.4958  10.4958  12.2425
    12.2425  18.5215  18.5215  20.1234

          k =-0.4000 0.4000 0.1000 (   970 PWs)   bands (ev):

   -74.1096 -40.6093 -40.5080 -40.4529   9.1923  10.3748  11.7452  12.0482
    12.1492  13.4040  20.4572  28.3375

          k =-0.4000 0.3000 0.2000 (   962 PWs)   bands (ev):

   -74.1110 -40.5916 -40.5028 -40.4640   9.3908  10.4299  10.8016  11.9947
    12.1763  13.6057  22.6579  25.4848

          k = 0.5000-0.5000 0.1000 (   968 PWs)   bands (ev):

   -74.1070 -40.6243 -40.5151 -40.4526   9.2714  10.3100  12.0560  12.1658
    12.3293  14.3592  18.4214  28.3822

          k = 0.5000-0.6000 0.2000 (   964 PWs)   bands (ev):

   -74.1068 -40.6079 -40.5219 -40.4650   9.5992  10.3272  11.3768  12.0681
    12.2411  15.1854  19.3175  24.7686

          k = 0.5000-0.7000 0.3000 (   968 PWs)   bands (ev):

   -74.1067 -40.5947 -40.5289 -40.4729   9.9179  10.3910  10.7919  12.0650
    12.2277  15.3967  21.4444  21.8328

          k = 0.4000-0.6000 0.3000 (   961 PWs)   bands (ev):

   -74.1050 -40.5867 -40.5484 -40.4751   9.9795  10.4128  10.8703  12.1285
    12.2301  17.3467  18.9412  21.3244

          k = 0.0000 0.0000 0.3000 (   968 PWs)   bands (ev):

   -74.1242 -40.4937 -40.4759 -40.4759   7.2621  11.1267  11.1267  11.4219
    11.5169  12.2497  30.7820  31.2901

          k = 0.0000-0.1000 0.4000 (   969 PWs)   bands (ev):

   -74.1162 -40.5369 -40.4950 -40.4797   8.3574  10.9731  11.0232  11.4858
    11.8779  12.4336  26.8202  29.2787

          k = 0.0000-0.2000 0.5000 (   965 PWs)   bands (ev):

   -74.1083 -40.5852 -40.5141 -40.4777   9.3164  10.7954  10.8493  11.7540
    12.4702  13.1086  22.6767  27.7082

          k = 0.0000-0.3000 0.6000 (   958 PWs)   bands (ev):

   -74.1033 -40.6151 -40.5255 -40.4763   9.5451  10.7398  10.9454  11.8042
    12.8805  14.8053  19.2984  26.8118

          k =-0.1000-0.1000 0.5000 (   965 PWs)   bands (ev):

   -74.1085 -40.5680 -40.5168 -40.4893   9.3101  10.6170  11.1240  11.5752
    12.2464  13.0776  25.1103  25.3557

          k =-0.1000-0.2000 0.6000 (   966 PWs)   bands (ev):

   -74.1023 -40.5974 -40.5372 -40.4901   9.8093  10.4380  10.9933  11.8146
    12.5853  14.7347  21.3382  24.1374

          k =-0.1000 0.7000-0.3000 (   965 PWs)   bands (ev):

   -74.0999 -40.6086 -40.5457 -40.4897   9.8274  10.5621  10.8523  11.8776
    12.7701  16.5499  18.8108  23.7310

          k =-0.2000 0.8000-0.3000 (   959 PWs)   bands (ev):

   -74.0986 -40.5940 -40.5664 -40.4929  10.1884  10.1895  10.7936  12.1621
    12.5247  17.1680  20.2390  20.9107

          k =-0.3000 0.3000 0.3000 (   965 PWs)   bands (ev):

   -74.1124 -40.5859 -40.4814 -40.4814   9.4682  10.4278  10.4278  12.0865
    12.0865  13.6058  25.0885  25.0885

          k = 0.6000-0.6000 0.3000 (   961 PWs)   bands (ev):

   -74.1078 -40.5931 -40.5112 -40.4834   9.9881  10.3057  10.7193  12.1187
    12.1593  15.2145  21.3825  24.3541

          k = 0.5000-0.5000 0.3000 (   962 PWs)   bands (ev):

   -74.1061 -40.5903 -40.5282 -40.4843   9.9516  10.2673  11.0743  12.1413
    12.1790  16.9207  18.8853  23.9750

          k = 0.5000-0.6000 0.4000 (   958 PWs)   bands (ev):

   -74.1059 -40.5733 -40.5341 -40.4983  10.1727  10.4093  10.6654  12.1647
    12.1841  17.4922  20.4480  20.9673

          k = 0.0000 0.0000 0.5000 (   968 PWs)   bands (ev):

   -74.1088 -40.5412 -40.5147 -40.5147   9.1789  10.7414  11.4062  11.4062
    11.9228  12.9168  27.1257  27.1257

          k = 0.0000-0.1000 0.6000 (   967 PWs)   bands (ev):

   -74.1015 -40.5761 -40.5344 -40.5188   9.7380  10.3366  11.4355  11.6826
    12.3985  14.1362  23.5575  25.4659

          k = 0.0000-0.2000 0.7000 (   960 PWs)   bands (ev):

   -74.0969 -40.6022 -40.5463 -40.5163   9.8275  10.2084  11.3777  11.7986
    12.8213  16.3437  20.0066  24.5209

          k =-0.1000-0.1000 0.7000 (   960 PWs)   bands (ev):

   -74.0957 -40.5894 -40.5579 -40.5256   9.8887  10.0121  11.4894  12.0602
    12.6237  16.1192  22.2704  22.4876

          k =-0.1000 0.8000-0.2000 (   956 PWs)   bands (ev):

   -74.0935 -40.5947 -40.5694 -40.5253   9.8514   9.9562  11.4472  12.2521
    12.7359  18.4347  19.5069  21.9514

          k = 0.5000-0.5000 0.5000 (   952 PWs)   bands (ev):

   -74.1055 -40.5364 -40.5364 -40.5364  10.4314  10.4314  10.4314  12.1872
    12.1872  20.1073  20.1073  20.1073

          k = 0.0000 0.0000 0.7000 (   964 PWs)   bands (ev):

   -74.0946 -40.5715 -40.5546 -40.5546   9.7609   9.9576  12.0152  12.0152
    12.4306  15.7218  23.6988  23.6988

          k = 0.0000-0.1000 0.8000 (   962 PWs)   bands (ev):

   -74.0904 -40.5893 -40.5670 -40.5560   9.6774   9.7196  12.1328  12.2690
    12.7633  18.0646  21.1019  22.6722

          k =-0.1000 0.9000-0.1000 (   970 PWs)   bands (ev):

   -74.0884 -40.5841 -40.5841 -40.5598   9.5945   9.5945  12.2045  12.6919
    12.6919  20.4110  20.4110  20.8921

          k = 0.0000 0.0000 0.9000 (   960 PWs)   bands (ev):

   -74.0864 -40.5816 -40.5798 -40.5798   9.4706   9.4751  12.6736  12.6736
    12.7473  20.0456  21.5732  21.5732

 ------ SPIN DOWN ----------


          k = 0.0000 0.0000 0.1000 (   959 PWs)   bands (ev):

   -71.0783 -37.4720 -37.4689 -37.4689   6.3242  13.3450  13.3450  13.3985
    14.6200  14.7350  34.5118  35.3446

          k = 0.0000-0.1000 0.2000 (   966 PWs)   bands (ev):

   -71.0725 -37.5090 -37.4821 -37.4695   7.0013  13.1822  13.2922  13.7304
    14.4293  14.7846  31.3618  33.7074

          k = 0.0000-0.2000 0.3000 (   973 PWs)   bands (ev):

   -71.0632 -37.5691 -37.5035 -37.4694   8.2511  12.9043  13.0895  14.3403
    14.3717  14.8342  27.1558  31.7873

          k = 0.0000-0.3000 0.4000 (   965 PWs)   bands (ev):

   -71.0538 -37.6286 -37.5244 -37.4687   9.7294  12.6373  12.9918  14.4971
    14.9071  15.0286  23.2653  30.9166

          k = 0.0000-0.4000 0.5000 (   970 PWs)   bands (ev):

   -71.0481 -37.6655 -37.5375 -37.4685  10.6175  12.4775  13.4487  14.5765
    15.1249  15.5069  20.4380  29.8734

          k =-0.1000 0.1000 0.1000 (   965 PWs)   bands (ev):

   -71.0753 -37.4980 -37.4690 -37.4690   6.6662  13.2348  13.2348  13.6609
    14.6498  14.6498  33.1620  33.1620

          k =-0.1000-0.1000 0.3000 (   972 PWs)   bands (ev):

   -71.0651 -37.5501 -37.4966 -37.4787   7.9600  13.0863  13.1081  14.1705
    14.2242  14.8833  29.2902  29.9242

          k =-0.1000-0.2000 0.4000 (   968 PWs)   bands (ev):

   -71.0558 -37.6028 -37.5205 -37.4809   9.3515  12.7750  12.9133  14.2677
    14.8047  15.0459  25.4150  28.0606

          k =-0.1000-0.3000 0.5000 (   968 PWs)   bands (ev):

   -71.0484 -37.6451 -37.5418 -37.4810  10.6117  12.5862  12.8676  14.4441
    15.0293  15.8084  21.8454  26.9678

          k =-0.1000 0.6000-0.4000 (   967 PWs)   bands (ev):

   -71.0455 -37.6613 -37.5501 -37.4807  11.0084  12.5453  13.0346  14.4834
    15.2048  16.4873  20.0034  26.5625

          k =-0.2000 0.2000 0.1000 (   965 PWs)   bands (ev):

   -71.0677 -37.5472 -37.4864 -37.4691   7.6473  12.9707  13.0695  14.1906
    14.5302  14.7158  29.2772  31.3944

          k =-0.2000-0.2000 0.5000 (   966 PWs)   bands (ev):

   -71.0485 -37.6294 -37.5486 -37.4885  10.6422  12.4311  12.8369  14.3525
    14.9260  15.9936  24.0596  24.1573

          k =-0.2000 0.7000-0.4000 (   964 PWs)   bands (ev):

   -71.0439 -37.6401 -37.5739 -37.4908  11.4789  12.3667  12.6628  14.5254
    14.9846  17.4808  20.8874  23.3593

          k =-0.3000 0.3000 0.1000 (   966 PWs)   bands (ev):

   -71.0583 -37.6041 -37.5111 -37.4693   9.0790  12.6761  12.8694  14.5440
    14.7903  14.9036  25.1718  29.8671

          k =-0.3000 0.2000 0.2000 (   967 PWs)   bands (ev):

   -71.0600 -37.5927 -37.4990 -37.4788   8.8426  12.7336  12.7457  14.5359
    14.7805  14.9151  27.3770  27.7813

          k =-0.3000 0.7000-0.3000 (   955 PWs)   bands (ev):

   -71.0422 -37.6124 -37.6124 -37.4934  12.1071  12.2619  12.2619  14.7829
    14.7829  19.7710  19.7710  21.1760

          k =-0.4000 0.4000 0.1000 (   970 PWs)   bands (ev):

   -71.0506 -37.6493 -37.5319 -37.4697  10.3727  12.4552  13.0751  14.6259
    14.8538  15.6259  21.6695  28.8332

          k =-0.4000 0.3000 0.2000 (   962 PWs)   bands (ev):

   -71.0522 -37.6288 -37.5264 -37.4824  10.2671  12.4589  12.6104  14.5970
    14.8606  15.8159  23.6473  26.2763

          k = 0.5000-0.5000 0.1000 (   968 PWs)   bands (ev):

   -71.0477 -37.6665 -37.5399 -37.4695  10.7735  12.3741  13.5587  14.6521
    14.8799  16.0523  19.9707  28.4675

          k = 0.5000-0.6000 0.2000 (   964 PWs)   bands (ev):

   -71.0474 -37.6476 -37.5482 -37.4836  11.0964  12.3388  12.8719  14.6775
    14.9074  16.8636  20.6231  25.5431

          k = 0.5000-0.7000 0.3000 (   968 PWs)   bands (ev):

   -71.0473 -37.6323 -37.5566 -37.4924  11.3658  12.2536  12.5114  14.6810
    14.8943  17.1699  22.5307  22.7203

          k = 0.4000-0.6000 0.3000 (   961 PWs)   bands (ev):

   -71.0454 -37.6232 -37.5790 -37.4949  11.7196  12.2688  12.5024  14.7566
    14.8815  18.6767  20.2338  22.2719

          k = 0.0000 0.0000 0.3000 (   968 PWs)   bands (ev):

   -71.0670 -37.5168 -37.4955 -37.4955   7.6525  13.3595  13.3595  13.7530
    13.9964  14.9357  31.2754  32.0856

          k = 0.0000-0.1000 0.4000 (   969 PWs)   bands (ev):

   -71.0581 -37.5662 -37.5171 -37.5001   8.8408  13.1558  13.2247  13.8616
    14.2712  15.0508  27.6637  30.1227

          k = 0.0000-0.2000 0.5000 (   965 PWs)   bands (ev):

   -71.0491 -37.6215 -37.5388 -37.4980  10.2228  12.7446  13.0083  14.1470
    14.9663  15.3362  23.7019  28.5243

          k = 0.0000-0.3000 0.6000 (   958 PWs)   bands (ev):

   -71.0436 -37.6557 -37.5518 -37.4964  11.0633  12.6813  12.8725  14.2443
    15.4629  16.2791  20.6260  27.5763

          k =-0.1000-0.1000 0.5000 (   965 PWs)   bands (ev):

   -71.0494 -37.6017 -37.5421 -37.5109  10.0707  12.7365  13.2767  13.9223
    14.7307  15.3635  26.0549  26.1759

          k =-0.1000-0.2000 0.6000 (   966 PWs)   bands (ev):

   -71.0424 -37.6351 -37.5655 -37.5118  11.1627  12.3580  13.1144  14.2043
    15.0986  16.4524  22.4052  24.9988

          k =-0.1000 0.7000-0.3000 (   965 PWs)   bands (ev):

   -71.0398 -37.6479 -37.5750 -37.5113  11.5416  12.3196  12.9662  14.2772
    15.3136  17.7890  20.1538  24.5712

          k =-0.2000 0.8000-0.3000 (   959 PWs)   bands (ev):

   -71.0383 -37.6311 -37.5992 -37.5149  11.8836  12.0779  12.8343  14.5975
    15.0203  18.4897  21.3655  21.8637

          k =-0.3000 0.3000 0.3000 (   965 PWs)   bands (ev):

   -71.0537 -37.6221 -37.5022 -37.5022  10.1354  12.4389  12.4389  14.7520
    14.7520  15.8483  25.9391  25.9391

          k = 0.6000-0.6000 0.3000 (   961 PWs)   bands (ev):

   -71.0486 -37.6305 -37.5364 -37.5047  11.3099  12.2628  12.3698  14.7831
    14.8646  17.0597  22.4034  25.1172

          k = 0.5000-0.5000 0.3000 (   962 PWs)   bands (ev):

   -71.0466 -37.6275 -37.5558 -37.5058  11.5892  12.2055  12.6262  14.8062
    14.8979  18.2817  20.2096  24.7238

          k = 0.5000-0.6000 0.4000 (   958 PWs)   bands (ev):

   -71.0464 -37.6078 -37.5630 -37.5218  11.9372  12.1936  12.3038  14.8587
    14.8944  18.8883  21.5684  21.8825

          k = 0.0000 0.0000 0.5000 (   968 PWs)   bands (ev):

   -71.0498 -37.5714 -37.5396 -37.5396   9.8586  12.9804  13.6304  13.6304
    14.3373  15.2888  27.9769  27.9769

          k = 0.0000-0.1000 0.6000 (   967 PWs)   bands (ev):

   -71.0415 -37.6107 -37.5619 -37.5446  10.9113  12.4144  13.6666  13.9676
    14.8833  15.9409  24.4818  26.2736

          k = 0.0000-0.2000 0.7000 (   960 PWs)   bands (ev):

   -71.0364 -37.6404 -37.5756 -37.5418  11.5379  12.0564  13.5997  14.0931
    15.3923  17.6075  21.1179  25.2671

          k =-0.1000-0.1000 0.7000 (   960 PWs)   bands (ev):

   -71.0351 -37.6257 -37.5889 -37.5522  11.4937  11.9975  13.6981  14.4107
    15.1378  17.4375  23.2165  23.3120

          k =-0.1000 0.8000-0.2000 (   956 PWs)   bands (ev):

   -71.0326 -37.6316 -37.6022 -37.5518  11.7320  11.7905  13.6186  14.6447
    15.2712  19.4674  20.5733  22.7885

          k = 0.5000-0.5000 0.5000 (   952 PWs)   bands (ev):

   -71.0460 -37.5656 -37.5656 -37.5656  12.1862  12.1862  12.1862  14.9091
    14.9091  21.2399  21.2399  21.2399

          k = 0.0000 0.0000 0.7000 (   964 PWs)   bands (ev):

   -71.0339 -37.6054 -37.5850 -37.5850  11.3327  11.9814  14.3309  14.3309
    14.9340  17.0081  24.4412  24.4412

          k = 0.0000-0.1000 0.8000 (   962 PWs)   bands (ev):

   -71.0292 -37.6251 -37.5991 -37.5868  11.4921  11.6454  14.4996  14.6316
    15.3236  19.0215  21.9119  23.3264

          k =-0.1000 0.9000-0.1000 (   970 PWs)   bands (ev):

   -71.0269 -37.6188 -37.6188 -37.5909  11.4810  11.4810  14.5668  15.2146
    15.2146  21.1735  21.1735  21.5925

          k = 0.0000 0.0000 0.9000 (   960 PWs)   bands (ev):

   -71.0247 -37.6161 -37.6137 -37.6137  11.3424  11.3805  15.1910  15.1910
    15.3084  20.6978  22.0983  22.0983

     the Fermi energy is    13.1961 ev

!    total energy              =    -254.19241347 Ry
     estimated scf accuracy    <          1.8E-09 Ry
     smearing contrib. (-TS)   =       0.00154672 Ry
     internal energy E=F+TS    =    -254.19396019 Ry

     The total energy is F=E-TS. E is the sum of the following terms:
     one-electron contribution =    -132.69343555 Ry
     hartree contribution      =      73.45450125 Ry
     xc contribution           =     -34.32679087 Ry
     ewald contribution        =    -160.62823501 Ry

     total magnetization       =     2.64 Bohr mag/cell
     absolute magnetization    =     2.75 Bohr mag/cell

     convergence has been achieved in  11 iterations

     Writing output data file ./tempdir/fe.save/

     init_run     :      0.93s CPU      0.95s WALL (       1 calls)
     electrons    :     12.74s CPU     13.24s WALL (       1 calls)

     Called by init_run:
     wfcinit      :      0.32s CPU      0.32s WALL (       1 calls)
     potinit      :      0.05s CPU      0.06s WALL (       1 calls)
     hinit0       :      0.43s CPU      0.43s WALL (       1 calls)

     Called by electrons:
     c_bands      :      8.08s CPU      8.19s WALL (      11 calls)
     sum_band     :      3.22s CPU      3.43s WALL (      11 calls)
     v_of_rho     :      0.26s CPU      0.27s WALL (      12 calls)
     newd         :      1.08s CPU      1.24s WALL (      12 calls)
     mix_rho      :      0.11s CPU      0.11s WALL (      11 calls)

     Called by c_bands:
     init_us_2    :      0.19s CPU      0.20s WALL (    1012 calls)
     cegterg      :      7.22s CPU      7.31s WALL (     484 calls)

     Called by *egterg:
     cdiaghg      :      0.21s CPU      0.21s WALL (    1788 calls)
     h_psi        :      6.61s CPU      6.69s WALL (    1832 calls)
     s_psi        :      0.09s CPU      0.09s WALL (    1832 calls)
     g_psi        :      0.04s CPU      0.04s WALL (    1304 calls)

     Called by h_psi:
     h_psi:calbec :      0.13s CPU      0.13s WALL (    1832 calls)
     vloc_psi     :      6.35s CPU      6.43s WALL (    1832 calls)
     add_vuspsi   :      0.10s CPU      0.10s WALL (    1832 calls)

     General routines
     calbec       :      0.17s CPU      0.17s WALL (    2316 calls)
     fft          :      0.25s CPU      0.26s WALL (     126 calls)
     ffts         :      0.01s CPU      0.01s WALL (      46 calls)
     fftw         :      6.83s CPU      6.91s WALL (   36694 calls)
     interpolate  :      0.07s CPU      0.07s WALL (      24 calls)

     Parallel routines

     PWSCF        :     13.77s CPU     14.30s WALL


   This run was terminated on:  22: 2:39  18Apr2021            

=------------------------------------------------------------------------------=
   JOB DONE.
=------------------------------------------------------------------------------=
