
     Program PWSCF v.6.7GPU starts on 18Apr2021 at 22: 1:28 

     This program is part of the open-source Quantum ESPRESSO suite
     for quantum simulation of materials; please cite
         "P. Giannozzi et al., J. Phys.:Condens. Matter 21 395502 (2009);
         "P. Giannozzi et al., J. Phys.:Condens. Matter 29 465901 (2017);
         "P. Giannozzi et al., J. Chem. Phys. 152 154105 (2020);
          URL http://www.quantum-espresso.org", 
     in publications or presentations arising from this work. More details at
     http://www.quantum-espresso.org/quote

     Parallel version (MPI & OpenMP), running on       2 processor cores
     Number of MPI processes:                 2
     Threads/MPI process:                     1

     MPI processes distributed on     1 nodes
     K-points division:     npool     =       2
     Waiting for input...
     Reading input from standard input

     Current dimensions of program PWSCF are:
     Max number of different atomic species (ntypx) = 10
     Max number of k-points (npk) =  40000
     Max angular momentum in pseudopotentials (lmaxx) =  3

     Subspace diagonalization in iterative solution of the eigenvalue problem:
     a serial algorithm will be used


     G-vector sticks info
     --------------------
     sticks:   dense  smooth     PW     G-vecs:    dense   smooth      PW
     Sum        1399     467    139                32997     6339    1061

     Using Slab Decomposition



     bravais-lattice index     =            3
     lattice parameter (alat)  =       5.4000  a.u.
     unit-cell volume          =      78.7320 (a.u.)^3
     number of atoms/cell      =            1
     number of atomic types    =            1
     number of electrons       =        16.00
     number of Kohn-Sham states=           12
     kinetic-energy cutoff     =      70.0000  Ry
     charge density cutoff     =     850.0000  Ry
     scf convergence threshold =      1.0E-08
     mixing beta               =       0.7000
     number of iterations used =            8  plain     mixing
     Exchange-correlation= LDA
                           (   1   1   0   0   0   0   0)

     celldm(1)=   5.400000  celldm(2)=   0.000000  celldm(3)=   0.000000
     celldm(4)=   0.000000  celldm(5)=   0.000000  celldm(6)=   0.000000

     crystal axes: (cart. coord. in units of alat)
               a(1) = (   0.500000   0.500000   0.500000 )  
               a(2) = (  -0.500000   0.500000   0.500000 )  
               a(3) = (  -0.500000  -0.500000   0.500000 )  

     reciprocal axes: (cart. coord. in units 2 pi/alat)
               b(1) = (  1.000000  0.000000  1.000000 )  
               b(2) = ( -1.000000  1.000000  0.000000 )  
               b(3) = (  0.000000 -1.000000  1.000000 )  


     PseudoPot. # 1 for Fe read from file:
     /home/pietro/repositories/materials-for-max-qe2021-online-school/pseudo/Fe.pz-spn-rrkjus_psl.0.2.1.UPF
     MD5 check sum: 3cbc4c6ff80f64c0ae98e6ac432cb3b7
     Pseudo is Ultrasoft + core correction, Zval = 16.0
     Generated using "atomic" code by A. Dal Corso  v.5.0.2 svn rev. 9415
     Using radial grid of 1191 points,  6 beta functions with: 
                l(1) =   0
                l(2) =   0
                l(3) =   1
                l(4) =   1
                l(5) =   2
                l(6) =   2
     Q(r) pseudized with 0 coefficients 


     atomic species   valence    mass     pseudopotential
        Fe            16.00    55.84500     Fe( 1.00)

     Starting magnetic structure 
     atomic species   magnetization
        Fe           0.700

     48 Sym. Ops., with inversion, found



   Cartesian axes

     site n.     atom                  positions (alat units)
         1           Fe  tau(   1) = (   0.0000000   0.0000000   0.0000000  )

     number of k points=    44  Marzari-Vanderbilt smearing, width (Ry)=  0.0200
                       cart. coord. in units 2pi/alat
        k(    1) = (   0.0000000   0.0000000   0.1000000), wk =   0.0060000
        k(    2) = (   0.0000000  -0.1000000   0.2000000), wk =   0.0240000
        k(    3) = (   0.0000000  -0.2000000   0.3000000), wk =   0.0240000
        k(    4) = (   0.0000000  -0.3000000   0.4000000), wk =   0.0240000
        k(    5) = (   0.0000000  -0.4000000   0.5000000), wk =   0.0240000
        k(    6) = (  -0.1000000   0.1000000   0.1000000), wk =   0.0080000
        k(    7) = (  -0.1000000  -0.1000000   0.3000000), wk =   0.0240000
        k(    8) = (  -0.1000000  -0.2000000   0.4000000), wk =   0.0480000
        k(    9) = (  -0.1000000  -0.3000000   0.5000000), wk =   0.0480000
        k(   10) = (  -0.1000000   0.6000000  -0.4000000), wk =   0.0240000
        k(   11) = (  -0.2000000   0.2000000   0.1000000), wk =   0.0240000
        k(   12) = (  -0.2000000  -0.2000000   0.5000000), wk =   0.0240000
        k(   13) = (  -0.2000000   0.7000000  -0.4000000), wk =   0.0480000
        k(   14) = (  -0.3000000   0.3000000   0.1000000), wk =   0.0240000
        k(   15) = (  -0.3000000   0.2000000   0.2000000), wk =   0.0240000
        k(   16) = (  -0.3000000   0.7000000  -0.3000000), wk =   0.0080000
        k(   17) = (  -0.4000000   0.4000000   0.1000000), wk =   0.0240000
        k(   18) = (  -0.4000000   0.3000000   0.2000000), wk =   0.0480000
        k(   19) = (   0.5000000  -0.5000000   0.1000000), wk =   0.0120000
        k(   20) = (   0.5000000  -0.6000000   0.2000000), wk =   0.0480000
        k(   21) = (   0.5000000  -0.7000000   0.3000000), wk =   0.0240000
        k(   22) = (   0.4000000  -0.6000000   0.3000000), wk =   0.0240000
        k(   23) = (   0.0000000   0.0000000   0.3000000), wk =   0.0060000
        k(   24) = (   0.0000000  -0.1000000   0.4000000), wk =   0.0240000
        k(   25) = (   0.0000000  -0.2000000   0.5000000), wk =   0.0240000
        k(   26) = (   0.0000000  -0.3000000   0.6000000), wk =   0.0240000
        k(   27) = (  -0.1000000  -0.1000000   0.5000000), wk =   0.0240000
        k(   28) = (  -0.1000000  -0.2000000   0.6000000), wk =   0.0480000
        k(   29) = (  -0.1000000   0.7000000  -0.3000000), wk =   0.0240000
        k(   30) = (  -0.2000000   0.8000000  -0.3000000), wk =   0.0240000
        k(   31) = (  -0.3000000   0.3000000   0.3000000), wk =   0.0080000
        k(   32) = (   0.6000000  -0.6000000   0.3000000), wk =   0.0240000
        k(   33) = (   0.5000000  -0.5000000   0.3000000), wk =   0.0120000
        k(   34) = (   0.5000000  -0.6000000   0.4000000), wk =   0.0240000
        k(   35) = (   0.0000000   0.0000000   0.5000000), wk =   0.0060000
        k(   36) = (   0.0000000  -0.1000000   0.6000000), wk =   0.0240000
        k(   37) = (   0.0000000  -0.2000000   0.7000000), wk =   0.0240000
        k(   38) = (  -0.1000000  -0.1000000   0.7000000), wk =   0.0240000
        k(   39) = (  -0.1000000   0.8000000  -0.2000000), wk =   0.0240000
        k(   40) = (   0.5000000  -0.5000000   0.5000000), wk =   0.0020000
        k(   41) = (   0.0000000   0.0000000   0.7000000), wk =   0.0060000
        k(   42) = (   0.0000000  -0.1000000   0.8000000), wk =   0.0240000
        k(   43) = (  -0.1000000   0.9000000  -0.1000000), wk =   0.0080000
        k(   44) = (   0.0000000   0.0000000   0.9000000), wk =   0.0060000

     Dense  grid:    32997 G-vectors     FFT dimensions: (  45,  45,  45)

     Smooth grid:     6339 G-vectors     FFT dimensions: (  25,  25,  25)

     Estimated max dynamical RAM per process >      90.12 MB

     Estimated total dynamical RAM >     164.13 MB

     Check: negative core charge=   -0.000010
     Generating pointlists ...
     new r_m :   0.3572 (alat units)  1.9291 (a.u.) for type    1

     Initial potential from superposition of free atoms

     starting charge   15.99965, renormalised to   16.00000
     Starting wfcs are   13 randomized atomic wfcs

     total cpu time spent up to now is        1.0 secs

     Self-consistent Calculation

     iteration #  1     ecut=    70.00 Ry     beta= 0.70
     Davidson diagonalization with overlap
     ethr =  1.00E-02,  avg # of iterations =  3.0

     negative rho (up, down):  0.000E+00 6.586E-05

     total cpu time spent up to now is        2.0 secs

     total energy              =    -253.94375948 Ry
     estimated scf accuracy    <       1.50880342 Ry

     total magnetization       =     3.83 Bohr mag/cell
     absolute magnetization    =     3.87 Bohr mag/cell

     iteration #  2     ecut=    70.00 Ry     beta= 0.70
     Davidson diagonalization with overlap
     ethr =  9.43E-03,  avg # of iterations =  1.3

     negative rho (up, down):  0.000E+00 6.910E-05

     total cpu time spent up to now is        3.2 secs

     total energy              =    -254.11498819 Ry
     estimated scf accuracy    <       0.37964791 Ry

     total magnetization       =     3.00 Bohr mag/cell
     absolute magnetization    =     3.09 Bohr mag/cell

     iteration #  3     ecut=    70.00 Ry     beta= 0.70
     Davidson diagonalization with overlap
     ethr =  2.37E-03,  avg # of iterations =  2.0

     negative rho (up, down):  0.000E+00 7.084E-05

     total cpu time spent up to now is        4.6 secs

     total energy              =    -254.14629961 Ry
     estimated scf accuracy    <       0.54951279 Ry

     total magnetization       =     2.42 Bohr mag/cell
     absolute magnetization    =     2.51 Bohr mag/cell

     iteration #  4     ecut=    70.00 Ry     beta= 0.70
     Davidson diagonalization with overlap
     ethr =  2.37E-03,  avg # of iterations =  2.0

     negative rho (up, down):  0.000E+00 5.046E-05

     total cpu time spent up to now is        5.5 secs

     total energy              =    -254.22880753 Ry
     estimated scf accuracy    <       0.00202725 Ry

     total magnetization       =     2.26 Bohr mag/cell
     absolute magnetization    =     2.35 Bohr mag/cell

     iteration #  5     ecut=    70.00 Ry     beta= 0.70
     Davidson diagonalization with overlap
     ethr =  1.27E-05,  avg # of iterations =  5.4

     negative rho (up, down):  0.000E+00 4.563E-05

     total cpu time spent up to now is        6.6 secs

     total energy              =    -254.23090954 Ry
     estimated scf accuracy    <       0.00084788 Ry

     total magnetization       =     2.24 Bohr mag/cell
     absolute magnetization    =     2.31 Bohr mag/cell

     iteration #  6     ecut=    70.00 Ry     beta= 0.70
     Davidson diagonalization with overlap
     ethr =  5.30E-06,  avg # of iterations =  2.1

     negative rho (up, down):  0.000E+00 4.083E-05

     total cpu time spent up to now is        7.4 secs

     total energy              =    -254.23110644 Ry
     estimated scf accuracy    <       0.00006001 Ry

     total magnetization       =     2.22 Bohr mag/cell
     absolute magnetization    =     2.29 Bohr mag/cell

     iteration #  7     ecut=    70.00 Ry     beta= 0.70
     Davidson diagonalization with overlap
     ethr =  3.75E-07,  avg # of iterations =  2.8

     negative rho (up, down):  0.000E+00 4.154E-05

     total cpu time spent up to now is        8.2 secs

     total energy              =    -254.23112968 Ry
     estimated scf accuracy    <       0.00000233 Ry

     total magnetization       =     2.22 Bohr mag/cell
     absolute magnetization    =     2.27 Bohr mag/cell

     iteration #  8     ecut=    70.00 Ry     beta= 0.70
     Davidson diagonalization with overlap
     ethr =  1.46E-08,  avg # of iterations =  3.8

     negative rho (up, down):  0.000E+00 4.160E-05

     total cpu time spent up to now is        9.1 secs

     total energy              =    -254.23113040 Ry
     estimated scf accuracy    <       0.00000133 Ry

     total magnetization       =     2.22 Bohr mag/cell
     absolute magnetization    =     2.28 Bohr mag/cell

     iteration #  9     ecut=    70.00 Ry     beta= 0.70
     Davidson diagonalization with overlap
     ethr =  8.32E-09,  avg # of iterations =  2.0

     negative rho (up, down):  0.000E+00 4.157E-05

     total cpu time spent up to now is       10.1 secs

     total energy              =    -254.23113071 Ry
     estimated scf accuracy    <       0.00000003 Ry

     total magnetization       =     2.22 Bohr mag/cell
     absolute magnetization    =     2.28 Bohr mag/cell

     iteration # 10     ecut=    70.00 Ry     beta= 0.70
     Davidson diagonalization with overlap
     ethr =  1.70E-10,  avg # of iterations =  3.9

     negative rho (up, down):  0.000E+00 4.155E-05

     Magnetic moment per site  (integrated on atomic sphere of radius R)
     atom   1 (R=0.357)  charge= 14.4267  magn=  2.2287

     total cpu time spent up to now is       11.3 secs

     End of self-consistent calculation

 ------ SPIN UP ------------


          k = 0.0000 0.0000 0.1000 (   775 PWs)   bands (ev):

   -69.9694 -36.1816 -36.1750 -36.1750   9.0357  15.0569  15.0569  15.1142
    16.2828  16.4103  40.6105  41.5988

          k = 0.0000-0.1000 0.2000 (   775 PWs)   bands (ev):

   -69.9561 -36.2503 -36.1990 -36.1770   9.8168  14.8739  15.0219  15.5168
    16.0808  16.4706  37.3260  39.9855

          k = 0.0000-0.2000 0.3000 (   777 PWs)   bands (ev):

   -69.9346 -36.3646 -36.2379 -36.1763  11.1568  14.5610  14.9127  16.0657
    16.2485  16.5415  32.7578  37.8678

          k = 0.0000-0.3000 0.4000 (   785 PWs)   bands (ev):

   -69.9131 -36.4774 -36.2768 -36.1763  12.2754  14.2601  15.3291  16.2884
    16.7402  17.0629  28.3393  36.1986

          k = 0.0000-0.4000 0.5000 (   786 PWs)   bands (ev):

   -69.8998 -36.5461 -36.3010 -36.1759  12.5225  14.0798  16.0288  16.3615
    17.6201  17.8216  24.9665  35.2918

          k =-0.1000 0.1000 0.1000 (   776 PWs)   bands (ev):

   -69.9627 -36.2291 -36.1754 -36.1754   9.4329  14.9321  14.9321  15.4388
    16.3181  16.3181  39.2557  39.2557

          k =-0.1000-0.1000 0.3000 (   765 PWs)   bands (ev):

   -69.9389 -36.3282 -36.2250 -36.1930  10.8763  14.8000  14.8101  15.8822
    16.0658  16.6105  34.9560  36.1279

          k =-0.1000-0.2000 0.4000 (   778 PWs)   bands (ev):

   -69.9177 -36.4282 -36.2703 -36.1976  12.1886  14.4538  14.7494  15.9946
    16.6537  17.1314  30.7939  33.8925

          k =-0.1000-0.3000 0.5000 (   780 PWs)   bands (ev):

   -69.9005 -36.5078 -36.3096 -36.1981  12.7979  14.2541  15.0958  16.2268
    16.9988  18.4969  26.6804  32.6638

          k =-0.1000 0.6000-0.4000 (   779 PWs)   bands (ev):

   -69.8939 -36.5381 -36.3247 -36.1979  12.8317  14.1887  15.3559  16.2592
    17.2870  19.7446  24.4427  32.2175

          k =-0.2000 0.2000 0.1000 (   776 PWs)   bands (ev):

   -69.9451 -36.3227 -36.2072 -36.1760  10.5376  14.6362  14.7836  16.0975
    16.2075  16.3923  35.0770  37.3668

          k =-0.2000-0.2000 0.5000 (   777 PWs)   bands (ev):

   -69.9008 -36.4775 -36.3236 -36.2117  13.1292  14.1217  14.7384  16.1159
    16.7954  18.7410  29.0137  29.7118

          k =-0.2000 0.7000-0.4000 (   777 PWs)   bands (ev):

   -69.8903 -36.4975 -36.3713 -36.2158  13.3977  14.1465  14.6659  16.3329
    16.9303  21.0003  25.5120  28.5910

          k =-0.3000 0.3000 0.1000 (   783 PWs)   bands (ev):

   -69.9233 -36.4309 -36.2529 -36.1771  11.9200  14.3086  14.8269  16.2604
    16.4715  17.0110  30.5246  35.6767

          k =-0.3000 0.2000 0.2000 (   780 PWs)   bands (ev):

   -69.9272 -36.4089 -36.2313 -36.1940  11.7966  14.4130  14.4352  16.2249
    16.4780  17.0628  32.8245  33.6632

          k =-0.3000 0.7000-0.3000 (   772 PWs)   bands (ev):

   -69.8864 -36.4452 -36.4452 -36.2203  13.8551  14.1656  14.1656  16.6643
    16.6643  23.9078  23.9078  26.3350

          k =-0.4000 0.4000 0.1000 (   784 PWs)   bands (ev):

   -69.9056 -36.5160 -36.2911 -36.1777  12.5578  14.0634  15.8160  16.3915
    16.5368  18.0908  26.4704  34.5142

          k =-0.4000 0.3000 0.2000 (   781 PWs)   bands (ev):

   -69.9092 -36.4772 -36.2827 -36.2016  12.8792  14.1270  14.6247  16.3173
    16.5768  18.3951  28.7811  31.8572

          k = 0.5000-0.5000 0.1000 (   774 PWs)   bands (ev):

   -69.8988 -36.5476 -36.3054 -36.1777  12.6050  13.9733  16.4150  16.5632
    16.5840  18.9716  24.3855  34.1009

          k = 0.5000-0.6000 0.2000 (   783 PWs)   bands (ev):

   -69.8981 -36.5125 -36.3230 -36.2045  13.0379  13.9905  15.3521  16.4272
    16.6627  20.1068  25.2259  31.0394

          k = 0.5000-0.7000 0.3000 (   777 PWs)   bands (ev):

   -69.8978 -36.4827 -36.3403 -36.2196  13.4707  14.0494  14.6029  16.4187
    16.6514  20.4725  27.2130  28.1098

          k = 0.4000-0.6000 0.3000 (   776 PWs)   bands (ev):

   -69.8934 -36.4667 -36.3824 -36.2246  13.5322  14.0859  14.6839  16.5106
    16.6519  22.5358  24.6929  27.4110

          k = 0.0000 0.0000 0.3000 (   763 PWs)   bands (ev):

   -69.9434 -36.2668 -36.2231 -36.2231  10.5486  15.1152  15.1152  15.5324
    15.5973  16.6758  36.9243  38.4474

          k = 0.0000-0.1000 0.4000 (   778 PWs)   bands (ev):

   -69.9230 -36.3599 -36.2636 -36.2328  11.7706  14.8418  14.9655  15.5875
    16.1624  16.9311  33.3139  36.3202

          k = 0.0000-0.2000 0.5000 (   780 PWs)   bands (ev):

   -69.9025 -36.4633 -36.3035 -36.2299  12.7622  14.5696  14.7198  15.9668
    16.9890  17.7338  28.8507  34.5623

          k = 0.0000-0.3000 0.6000 (   785 PWs)   bands (ev):

   -69.8898 -36.5271 -36.3283 -36.2277  12.9424  14.5660  14.7604  16.0459
    17.5677  19.5544  25.2239  33.5141

          k =-0.1000-0.1000 0.5000 (   778 PWs)   bands (ev):

   -69.9033 -36.4260 -36.3100 -36.2534  12.7936  14.3274  15.0911  15.7205
    16.6772  17.7333  31.3586  31.9536

          k =-0.1000-0.2000 0.6000 (   778 PWs)   bands (ev):

   -69.8873 -36.4874 -36.3543 -36.2547  13.2977  14.0796  14.9020  16.0576
    17.1474  19.6467  27.3451  30.4395

          k =-0.1000 0.7000-0.3000 (   782 PWs)   bands (ev):

   -69.8811 -36.5118 -36.3716 -36.2540  13.2797  14.2378  14.7172  16.1488
    17.4041  21.5501  24.6843  29.9620

          k =-0.2000 0.8000-0.3000 (   777 PWs)   bands (ev):

   -69.8778 -36.4793 -36.4186 -36.2598  13.7307  13.7549  14.6346  16.5448
    17.0571  22.4204  25.8885  27.0560

          k =-0.3000 0.3000 0.3000 (   784 PWs)   bands (ev):

   -69.9125 -36.4640 -36.2386 -36.2386  13.0465  14.1212  14.1212  16.4472
    16.4472  18.4185  31.1927  31.1927

          k = 0.6000-0.6000 0.3000 (   781 PWs)   bands (ev):

   -69.9006 -36.4800 -36.3027 -36.2444  13.5617  13.9573  14.5116  16.4972
    16.5540  20.2845  27.3461  30.1659

          k = 0.5000-0.5000 0.3000 (   782 PWs)   bands (ev):

   -69.8961 -36.4750 -36.3386 -36.2465  13.4897  13.9065  14.9622  16.5311
    16.5830  22.0361  24.7580  29.8148

          k = 0.5000-0.6000 0.4000 (   779 PWs)   bands (ev):

   -69.8954 -36.4379 -36.3538 -36.2760  13.7831  14.0859  14.4307  16.5630
    16.5905  22.8257  26.0732  27.1315

          k = 0.0000 0.0000 0.5000 (   771 PWs)   bands (ev):

   -69.9042 -36.3702 -36.3047 -36.3047  12.6508  14.4853  15.4897  15.4897
    16.2239  17.5538  33.8816  33.8817

          k = 0.0000-0.1000 0.6000 (   776 PWs)   bands (ev):

   -69.8853 -36.4415 -36.3464 -36.3155  13.2153  13.9220  15.5281  15.8693
    16.8866  18.9714  29.7838  31.9517

          k = 0.0000-0.2000 0.7000 (   776 PWs)   bands (ev):

   -69.8737 -36.4965 -36.3718 -36.3107  13.2565  13.7531  15.4464  16.0341
    17.4836  21.4221  25.8711  30.8218

          k =-0.1000-0.1000 0.7000 (   767 PWs)   bands (ev):

   -69.8708 -36.4679 -36.3969 -36.3293  13.3433  13.4740  15.6013  16.3967
    17.2021  21.2287  28.2033  28.6458

          k =-0.1000 0.8000-0.2000 (   779 PWs)   bands (ev):

   -69.8653 -36.4792 -36.4225 -36.3287  13.2624  13.4059  15.5433  16.6680
    17.3581  23.7364  25.2749  27.9410

          k = 0.5000-0.5000 0.5000 (   784 PWs)   bands (ev):

   -69.8945 -36.3593 -36.3593 -36.3593  14.1205  14.1205  14.1205  16.5953
    16.5953  25.6825  25.6825  25.6826

          k = 0.0000 0.0000 0.7000 (   783 PWs)   bands (ev):

   -69.8682 -36.4313 -36.3895 -36.3895  13.1725  13.3926  16.3316  16.3316
    16.9330  20.7658  29.8522  29.8522

          k = 0.0000-0.1000 0.8000 (   784 PWs)   bands (ev):

   -69.8575 -36.4658 -36.4159 -36.3938  13.0223  13.0747  16.5001  16.6892
    17.4014  23.3864  26.8977  28.5988

          k =-0.1000 0.9000-0.1000 (   784 PWs)   bands (ev):

   -69.8524 -36.4526 -36.4526 -36.4004  12.9022  12.9022  16.6004  17.2958
    17.2958  25.9624  25.9624  26.7215

          k = 0.0000 0.0000 0.9000 (   776 PWs)   bands (ev):

   -69.8475 -36.4483 -36.4424 -36.4424  12.7326  12.7342  17.2697  17.2697
    17.3796  25.5476  27.2367  27.2367

 ------ SPIN DOWN ----------


          k = 0.0000 0.0000 0.1000 (   775 PWs)   bands (ev):

   -67.4006 -33.6676 -33.6602 -33.6602   9.4215  16.9141  16.9141  16.9831
    18.6125  18.7703  40.8658  41.8222

          k = 0.0000-0.1000 0.2000 (   775 PWs)   bands (ev):

   -67.3861 -33.7440 -33.6865 -33.6624  10.2132  16.6980  16.8495  17.4211
    18.3524  18.8395  37.9046  40.3632

          k = 0.0000-0.2000 0.3000 (   777 PWs)   bands (ev):

   -67.3626 -33.8707 -33.7291 -33.6618  11.6237  16.3324  16.6213  18.2262
    18.2765  18.9123  33.5836  38.2566

          k = 0.0000-0.3000 0.4000 (   785 PWs)   bands (ev):

   -67.3390 -33.9956 -33.7717 -33.6618  13.1016  15.9839  16.6610  18.4525
    19.0258  19.1359  29.3676  36.5567

          k = 0.0000-0.4000 0.5000 (   786 PWs)   bands (ev):

   -67.3244 -34.0717 -33.7980 -33.6615  13.7524  15.7766  17.4135  18.5697
    19.3582  19.7694  26.2694  35.6207

          k =-0.1000 0.1000 0.1000 (   776 PWs)   bands (ev):

   -67.3932 -33.7203 -33.6606 -33.6606   9.8229  16.7681  16.7681  17.3324
    18.6534  18.6534  39.6938  39.6938

          k =-0.1000-0.1000 0.3000 (   765 PWs)   bands (ev):

   -67.3673 -33.8303 -33.7153 -33.6802  11.3089  16.5796  16.6098  18.0065
    18.0749  18.9830  35.6812  36.7989

          k =-0.1000-0.2000 0.4000 (   778 PWs)   bands (ev):

   -67.3441 -33.9410 -33.7650 -33.6853  12.8070  16.1872  16.3978  18.1362
    18.8502  19.2263  31.6977  34.6054

          k =-0.1000-0.3000 0.5000 (   780 PWs)   bands (ev):

   -67.3252 -34.0291 -33.8081 -33.6859  13.9146  15.9463  16.5060  18.3817
    19.1816  20.2448  27.7905  33.3703

          k =-0.1000 0.6000-0.4000 (   779 PWs)   bands (ev):

   -67.3180 -34.0626 -33.8246 -33.6858  14.1542  15.8764  16.7956  18.4437
    19.4058  21.1062  25.7812  32.9111

          k =-0.2000 0.2000 0.1000 (   776 PWs)   bands (ev):

   -67.3740 -33.8241 -33.6956 -33.6614  10.9543  16.4207  16.5620  18.0369
    18.4915  18.7441  35.7825  37.9000

          k =-0.2000-0.2000 0.5000 (   777 PWs)   bands (ev):

   -67.3256 -33.9954 -33.8241 -33.7006  14.0946  15.7755  16.3198  18.2495
    19.0407  20.5075  30.0208  30.5143

          k =-0.2000 0.7000-0.4000 (   777 PWs)   bands (ev):

   -67.3141 -34.0174 -33.8769 -33.7051  14.7629  15.7466  16.1657  18.4878
    19.1098  22.3912  26.6598  29.4474

          k =-0.3000 0.3000 0.1000 (   783 PWs)   bands (ev):

   -67.3501 -33.9441 -33.7457 -33.6627  12.5082  16.0368  16.3808  18.5135
    18.8475  18.9872  31.4343  36.2002

          k =-0.3000 0.2000 0.2000 (   780 PWs)   bands (ev):

   -67.3543 -33.9194 -33.7224 -33.6813  12.2915  16.1301  16.1419  18.4991
    18.8339  19.0154  33.6230  34.3828

          k =-0.3000 0.7000-0.3000 (   772 PWs)   bands (ev):

   -67.3099 -33.9591 -33.9591 -33.7100  15.4016  15.6686  15.6686  18.8303
    18.8303  25.0951  25.0951  27.2842

          k =-0.4000 0.4000 0.1000 (   784 PWs)   bands (ev):

   -67.3307 -34.0384 -33.7876 -33.6636  13.6385  15.7511  16.8877  18.6299
    18.9370  19.9550  27.6085  34.9976

          k =-0.4000 0.3000 0.2000 (   781 PWs)   bands (ev):

   -67.3347 -33.9952 -33.7790 -33.6898  13.7322  15.7845  16.0695  18.5837
    18.9488  20.2301  29.7387  32.6069

          k = 0.5000-0.5000 0.1000 (   774 PWs)   bands (ev):

   -67.3233 -34.0735 -33.8033 -33.6636  13.8821  15.6466  17.5753  18.6724
    18.9741  20.5133  25.7586  34.5646

          k = 0.5000-0.6000 0.2000 (   783 PWs)   bands (ev):

   -67.3225 -34.0344 -33.8233 -33.6930  14.3205  15.6236  16.5944  18.6992
    19.0122  21.5773  26.4296  31.7749

          k = 0.5000-0.7000 0.3000 (   777 PWs)   bands (ev):

   -67.3222 -34.0012 -33.8431 -33.7097  14.7415  15.5893  15.9782  18.6967
    18.9960  22.0031  28.2539  28.9487

          k = 0.4000-0.6000 0.3000 (   776 PWs)   bands (ev):

   -67.3174 -33.9835 -33.8897 -33.7151  14.9720  15.6063  16.0495  18.8019
    18.9717  23.7662  25.8826  28.2938

          k = 0.0000 0.0000 0.3000 (   763 PWs)   bands (ev):

   -67.3723 -33.7629 -33.7131 -33.7131  10.9634  16.9393  16.9393  17.4442
    17.7655  19.0573  37.4867  39.1655

          k = 0.0000-0.1000 0.4000 (   778 PWs)   bands (ev):

   -67.3499 -33.8656 -33.7574 -33.7239  12.2815  16.6807  16.7611  17.5939
    18.1307  19.2423  34.1407  37.1143

          k = 0.0000-0.2000 0.5000 (   780 PWs)   bands (ev):

   -67.3275 -33.9798 -33.8011 -33.7209  13.6505  16.2197  16.4774  17.9855
    19.0515  19.6868  29.8422  35.3433

          k = 0.0000-0.3000 0.6000 (   785 PWs)   bands (ev):

   -67.3136 -34.0503 -33.8282 -33.7186  14.2639  16.2727  16.3004  18.1261
    19.7103  20.9160  26.4481  34.2505

          k =-0.1000-0.1000 0.5000 (   778 PWs)   bands (ev):

   -67.3283 -33.9385 -33.8086 -33.7465  13.5542  16.1301  16.8478  17.6788
    18.7440  19.7245  32.2976  32.7281

          k =-0.1000-0.2000 0.6000 (   778 PWs)   bands (ev):

   -67.3108 -34.0060 -33.8574 -33.7479  14.5259  15.7095  16.6409  18.0613
    19.2507  21.1701  28.3756  31.2662

          k =-0.1000 0.7000-0.3000 (   782 PWs)   bands (ev):

   -67.3041 -34.0328 -33.8765 -33.7471  14.7485  15.7690  16.4446  18.1699
    19.5246  22.7423  25.9072  30.7716

          k =-0.2000 0.8000-0.3000 (   777 PWs)   bands (ev):

   -67.3005 -33.9965 -33.9290 -33.7532  15.2223  15.3490  16.3100  18.5790
    19.1455  23.6564  26.9853  27.9379

          k =-0.3000 0.3000 0.3000 (   784 PWs)   bands (ev):

   -67.3383 -33.9804 -33.7306 -33.7306  13.6908  15.7614  15.7614  18.7958
    18.7958  20.2723  32.0192  32.0192

          k = 0.6000-0.6000 0.3000 (   781 PWs)   bands (ev):

   -67.3253 -33.9983 -33.8015 -33.7373  14.7471  15.5458  15.8202  18.8399
    18.9523  21.8571  28.3310  30.9977

          k = 0.5000-0.5000 0.3000 (   782 PWs)   bands (ev):

   -67.3203 -33.9929 -33.8412 -33.7397  14.8520  15.4768  16.2394  18.8732
    18.9990  23.2780  25.9618  30.6459

          k = 0.5000-0.6000 0.4000 (   779 PWs)   bands (ev):

   -67.3195 -33.9517 -33.8585 -33.7723  15.2428  15.5459  15.7595  18.9433
    18.9938  24.0830  27.1276  28.0137

          k = 0.0000 0.0000 0.5000 (   771 PWs)   bands (ev):

   -67.3294 -33.8775 -33.8027 -33.8027  13.3481  16.4185  17.3068  17.3068
    18.2104  19.6326  34.6930  34.6930

          k = 0.0000-0.1000 0.6000 (   776 PWs)   bands (ev):

   -67.3088 -33.9553 -33.8484 -33.8151  14.3142  15.7035  17.3512  17.7547
    18.9381  20.5709  30.6896  32.7295

          k = 0.0000-0.2000 0.7000 (   776 PWs)   bands (ev):

   -67.2961 -34.0155 -33.8763 -33.8099  14.7560  15.3410  17.2612  17.9434
    19.6155  22.6053  26.9267  31.5450

          k =-0.1000-0.1000 0.7000 (   767 PWs)   bands (ev):

   -67.2930 -33.9839 -33.9044 -33.8300  14.7597  15.1770  17.4115  18.3336
    19.2877  22.4473  29.1401  29.4314

          k =-0.1000 0.8000-0.2000 (   779 PWs)   bands (ev):

   -67.2869 -33.9959 -33.9327 -33.8292  14.8802  14.9917  17.3219  18.6469
    19.4610  24.7499  26.2841  28.7438

          k = 0.5000-0.5000 0.5000 (   784 PWs)   bands (ev):

   -67.3185 -33.8646 -33.8646 -33.8646  15.5494  15.5494  15.5494  19.0144
    19.0144  26.7405  26.7405  26.7405

          k = 0.0000 0.0000 0.7000 (   783 PWs)   bands (ev):

   -67.2901 -33.9438 -33.8958 -33.8958  14.5670  15.1287  18.2304  18.2304
    19.0013  21.9559  30.5760  30.5760

          k = 0.0000-0.1000 0.8000 (   784 PWs)   bands (ev):

   -67.2785 -33.9808 -33.9248 -33.9009  14.5990  14.7194  18.4444  18.6354
    19.5232  24.3099  27.6899  29.2443

          k =-0.1000 0.9000-0.1000 (   784 PWs)   bands (ev):

   -67.2730 -33.9657 -33.9657 -33.9079  14.5223  14.5223  18.5429  19.3835
    19.3835  26.7224  26.7224  27.3907

          k = 0.0000 0.0000 0.9000 (   776 PWs)   bands (ev):

   -67.2677 -33.9610 -33.9542 -33.9542  14.3392  14.3664  19.3516  19.3516
    19.5022  26.1956  27.7667  27.7667

     the Fermi energy is    17.3170 ev

!    total energy              =    -254.23113072 Ry
     estimated scf accuracy    <          1.6E-09 Ry
     smearing contrib. (-TS)   =       0.00057603 Ry
     internal energy E=F+TS    =    -254.23170675 Ry

     The total energy is F=E-TS. E is the sum of the following terms:
     one-electron contribution =    -113.45113894 Ry
     hartree contribution      =      66.16667665 Ry
     xc contribution           =     -34.42062166 Ry
     ewald contribution        =    -172.52662279 Ry

     total magnetization       =     2.22 Bohr mag/cell
     absolute magnetization    =     2.28 Bohr mag/cell

     convergence has been achieved in  10 iterations

     Writing output data file ./tempdir/fe.save/

     init_run     :      0.89s CPU      0.93s WALL (       1 calls)
     electrons    :      9.95s CPU     10.31s WALL (       1 calls)

     Called by init_run:
     wfcinit      :      0.40s CPU      0.41s WALL (       1 calls)
     potinit      :      0.03s CPU      0.03s WALL (       1 calls)
     hinit0       :      0.40s CPU      0.40s WALL (       1 calls)

     Called by electrons:
     c_bands      :      6.24s CPU      6.28s WALL (      10 calls)
     sum_band     :      2.60s CPU      2.80s WALL (      10 calls)
     v_of_rho     :      0.20s CPU      0.21s WALL (      11 calls)
     newd         :      0.80s CPU      0.93s WALL (      11 calls)
     mix_rho      :      0.08s CPU      0.08s WALL (      10 calls)

     Called by c_bands:
     init_us_2    :      0.15s CPU      0.15s WALL (     924 calls)
     cegterg      :      5.56s CPU      5.59s WALL (     440 calls)

     Called by *egterg:
     cdiaghg      :      0.20s CPU      0.20s WALL (    1672 calls)
     h_psi        :      5.19s CPU      5.22s WALL (    1716 calls)
     s_psi        :      0.07s CPU      0.07s WALL (    1716 calls)
     g_psi        :      0.03s CPU      0.03s WALL (    1232 calls)

     Called by h_psi:
     h_psi:calbec :      0.10s CPU      0.10s WALL (    1716 calls)
     vloc_psi     :      4.98s CPU      5.02s WALL (    1716 calls)
     add_vuspsi   :      0.08s CPU      0.08s WALL (    1716 calls)

     General routines
     calbec       :      0.13s CPU      0.13s WALL (    2156 calls)
     fft          :      0.21s CPU      0.21s WALL (     115 calls)
     ffts         :      0.01s CPU      0.01s WALL (      42 calls)
     fftw         :      5.32s CPU      5.38s WALL (   32848 calls)
     interpolate  :      0.06s CPU      0.06s WALL (      22 calls)

     Parallel routines

     PWSCF        :     10.92s CPU     11.33s WALL


   This run was terminated on:  22: 1:40  18Apr2021            

=------------------------------------------------------------------------------=
   JOB DONE.
=------------------------------------------------------------------------------=
