
     Program PWSCF v.6.7GPU starts on 18Apr2021 at 22: 1:43 

     This program is part of the open-source Quantum ESPRESSO suite
     for quantum simulation of materials; please cite
         "P. Giannozzi et al., J. Phys.:Condens. Matter 21 395502 (2009);
         "P. Giannozzi et al., J. Phys.:Condens. Matter 29 465901 (2017);
         "P. Giannozzi et al., J. Chem. Phys. 152 154105 (2020);
          URL http://www.quantum-espresso.org", 
     in publications or presentations arising from this work. More details at
     http://www.quantum-espresso.org/quote

     Parallel version (MPI & OpenMP), running on       2 processor cores
     Number of MPI processes:                 2
     Threads/MPI process:                     1

     MPI processes distributed on     1 nodes
     K-points division:     npool     =       2
     Waiting for input...
     Reading input from standard input

     Current dimensions of program PWSCF are:
     Max number of different atomic species (ntypx) = 10
     Max number of k-points (npk) =  40000
     Max angular momentum in pseudopotentials (lmaxx) =  3

     Subspace diagonalization in iterative solution of the eigenvalue problem:
     a serial algorithm will be used


     G-vector sticks info
     --------------------
     sticks:   dense  smooth     PW     G-vecs:    dense   smooth      PW
     Sum        1453     475    151                34881     6603    1157

     Using Slab Decomposition



     bravais-lattice index     =            3
     lattice parameter (alat)  =       5.5000  a.u.
     unit-cell volume          =      83.1875 (a.u.)^3
     number of atoms/cell      =            1
     number of atomic types    =            1
     number of electrons       =        16.00
     number of Kohn-Sham states=           12
     kinetic-energy cutoff     =      70.0000  Ry
     charge density cutoff     =     850.0000  Ry
     scf convergence threshold =      1.0E-08
     mixing beta               =       0.7000
     number of iterations used =            8  plain     mixing
     Exchange-correlation= LDA
                           (   1   1   0   0   0   0   0)

     celldm(1)=   5.500000  celldm(2)=   0.000000  celldm(3)=   0.000000
     celldm(4)=   0.000000  celldm(5)=   0.000000  celldm(6)=   0.000000

     crystal axes: (cart. coord. in units of alat)
               a(1) = (   0.500000   0.500000   0.500000 )  
               a(2) = (  -0.500000   0.500000   0.500000 )  
               a(3) = (  -0.500000  -0.500000   0.500000 )  

     reciprocal axes: (cart. coord. in units 2 pi/alat)
               b(1) = (  1.000000  0.000000  1.000000 )  
               b(2) = ( -1.000000  1.000000  0.000000 )  
               b(3) = (  0.000000 -1.000000  1.000000 )  


     PseudoPot. # 1 for Fe read from file:
     /home/pietro/repositories/materials-for-max-qe2021-online-school/pseudo/Fe.pz-spn-rrkjus_psl.0.2.1.UPF
     MD5 check sum: 3cbc4c6ff80f64c0ae98e6ac432cb3b7
     Pseudo is Ultrasoft + core correction, Zval = 16.0
     Generated using "atomic" code by A. Dal Corso  v.5.0.2 svn rev. 9415
     Using radial grid of 1191 points,  6 beta functions with: 
                l(1) =   0
                l(2) =   0
                l(3) =   1
                l(4) =   1
                l(5) =   2
                l(6) =   2
     Q(r) pseudized with 0 coefficients 


     atomic species   valence    mass     pseudopotential
        Fe            16.00    55.84500     Fe( 1.00)

     Starting magnetic structure 
     atomic species   magnetization
        Fe           0.700

     48 Sym. Ops., with inversion, found



   Cartesian axes

     site n.     atom                  positions (alat units)
         1           Fe  tau(   1) = (   0.0000000   0.0000000   0.0000000  )

     number of k points=    44  Marzari-Vanderbilt smearing, width (Ry)=  0.0200
                       cart. coord. in units 2pi/alat
        k(    1) = (   0.0000000   0.0000000   0.1000000), wk =   0.0060000
        k(    2) = (   0.0000000  -0.1000000   0.2000000), wk =   0.0240000
        k(    3) = (   0.0000000  -0.2000000   0.3000000), wk =   0.0240000
        k(    4) = (   0.0000000  -0.3000000   0.4000000), wk =   0.0240000
        k(    5) = (   0.0000000  -0.4000000   0.5000000), wk =   0.0240000
        k(    6) = (  -0.1000000   0.1000000   0.1000000), wk =   0.0080000
        k(    7) = (  -0.1000000  -0.1000000   0.3000000), wk =   0.0240000
        k(    8) = (  -0.1000000  -0.2000000   0.4000000), wk =   0.0480000
        k(    9) = (  -0.1000000  -0.3000000   0.5000000), wk =   0.0480000
        k(   10) = (  -0.1000000   0.6000000  -0.4000000), wk =   0.0240000
        k(   11) = (  -0.2000000   0.2000000   0.1000000), wk =   0.0240000
        k(   12) = (  -0.2000000  -0.2000000   0.5000000), wk =   0.0240000
        k(   13) = (  -0.2000000   0.7000000  -0.4000000), wk =   0.0480000
        k(   14) = (  -0.3000000   0.3000000   0.1000000), wk =   0.0240000
        k(   15) = (  -0.3000000   0.2000000   0.2000000), wk =   0.0240000
        k(   16) = (  -0.3000000   0.7000000  -0.3000000), wk =   0.0080000
        k(   17) = (  -0.4000000   0.4000000   0.1000000), wk =   0.0240000
        k(   18) = (  -0.4000000   0.3000000   0.2000000), wk =   0.0480000
        k(   19) = (   0.5000000  -0.5000000   0.1000000), wk =   0.0120000
        k(   20) = (   0.5000000  -0.6000000   0.2000000), wk =   0.0480000
        k(   21) = (   0.5000000  -0.7000000   0.3000000), wk =   0.0240000
        k(   22) = (   0.4000000  -0.6000000   0.3000000), wk =   0.0240000
        k(   23) = (   0.0000000   0.0000000   0.3000000), wk =   0.0060000
        k(   24) = (   0.0000000  -0.1000000   0.4000000), wk =   0.0240000
        k(   25) = (   0.0000000  -0.2000000   0.5000000), wk =   0.0240000
        k(   26) = (   0.0000000  -0.3000000   0.6000000), wk =   0.0240000
        k(   27) = (  -0.1000000  -0.1000000   0.5000000), wk =   0.0240000
        k(   28) = (  -0.1000000  -0.2000000   0.6000000), wk =   0.0480000
        k(   29) = (  -0.1000000   0.7000000  -0.3000000), wk =   0.0240000
        k(   30) = (  -0.2000000   0.8000000  -0.3000000), wk =   0.0240000
        k(   31) = (  -0.3000000   0.3000000   0.3000000), wk =   0.0080000
        k(   32) = (   0.6000000  -0.6000000   0.3000000), wk =   0.0240000
        k(   33) = (   0.5000000  -0.5000000   0.3000000), wk =   0.0120000
        k(   34) = (   0.5000000  -0.6000000   0.4000000), wk =   0.0240000
        k(   35) = (   0.0000000   0.0000000   0.5000000), wk =   0.0060000
        k(   36) = (   0.0000000  -0.1000000   0.6000000), wk =   0.0240000
        k(   37) = (   0.0000000  -0.2000000   0.7000000), wk =   0.0240000
        k(   38) = (  -0.1000000  -0.1000000   0.7000000), wk =   0.0240000
        k(   39) = (  -0.1000000   0.8000000  -0.2000000), wk =   0.0240000
        k(   40) = (   0.5000000  -0.5000000   0.5000000), wk =   0.0020000
        k(   41) = (   0.0000000   0.0000000   0.7000000), wk =   0.0060000
        k(   42) = (   0.0000000  -0.1000000   0.8000000), wk =   0.0240000
        k(   43) = (  -0.1000000   0.9000000  -0.1000000), wk =   0.0080000
        k(   44) = (   0.0000000   0.0000000   0.9000000), wk =   0.0060000

     Dense  grid:    34881 G-vectors     FFT dimensions: (  45,  45,  45)

     Smooth grid:     6603 G-vectors     FFT dimensions: (  25,  25,  25)

     Estimated max dynamical RAM per process >      94.57 MB

     Estimated total dynamical RAM >     172.11 MB

     Check: negative core charge=   -0.000010
     Generating pointlists ...
     new r_m :   0.3572 (alat units)  1.9648 (a.u.) for type    1

     Initial potential from superposition of free atoms

     starting charge   15.99965, renormalised to   16.00000
     Starting wfcs are   13 randomized atomic wfcs

     total cpu time spent up to now is        1.1 secs

     Self-consistent Calculation

     iteration #  1     ecut=    70.00 Ry     beta= 0.70
     Davidson diagonalization with overlap
     ethr =  1.00E-02,  avg # of iterations =  3.1

     negative rho (up, down):  0.000E+00 7.229E-05

     total cpu time spent up to now is        2.1 secs

     total energy              =    -253.94585083 Ry
     estimated scf accuracy    <       1.49169844 Ry

     total magnetization       =     3.86 Bohr mag/cell
     absolute magnetization    =     3.91 Bohr mag/cell

     iteration #  2     ecut=    70.00 Ry     beta= 0.70
     Davidson diagonalization with overlap
     ethr =  9.32E-03,  avg # of iterations =  1.3

     negative rho (up, down):  0.000E+00 7.522E-05

     total cpu time spent up to now is        3.2 secs

     total energy              =    -254.10185615 Ry
     estimated scf accuracy    <       0.39505303 Ry

     total magnetization       =     3.02 Bohr mag/cell
     absolute magnetization    =     3.13 Bohr mag/cell

     iteration #  3     ecut=    70.00 Ry     beta= 0.70
     Davidson diagonalization with overlap
     ethr =  2.47E-03,  avg # of iterations =  2.0

     negative rho (up, down):  0.000E+00 7.906E-05

     total cpu time spent up to now is        4.4 secs

     total energy              =    -254.13381901 Ry
     estimated scf accuracy    <       0.58277863 Ry

     total magnetization       =     2.53 Bohr mag/cell
     absolute magnetization    =     2.63 Bohr mag/cell

     iteration #  4     ecut=    70.00 Ry     beta= 0.70
     Davidson diagonalization with overlap
     ethr =  2.47E-03,  avg # of iterations =  2.0

     negative rho (up, down):  0.000E+00 5.809E-05

     total cpu time spent up to now is        5.6 secs

     total energy              =    -254.22149613 Ry
     estimated scf accuracy    <       0.00186179 Ry

     total magnetization       =     2.32 Bohr mag/cell
     absolute magnetization    =     2.43 Bohr mag/cell

     iteration #  5     ecut=    70.00 Ry     beta= 0.70
     Davidson diagonalization with overlap
     ethr =  1.16E-05,  avg # of iterations =  5.5

     negative rho (up, down):  0.000E+00 5.405E-05

     total cpu time spent up to now is        7.1 secs

     total energy              =    -254.22358276 Ry
     estimated scf accuracy    <       0.00086552 Ry

     total magnetization       =     2.30 Bohr mag/cell
     absolute magnetization    =     2.38 Bohr mag/cell

     iteration #  6     ecut=    70.00 Ry     beta= 0.70
     Davidson diagonalization with overlap
     ethr =  5.41E-06,  avg # of iterations =  2.0

     negative rho (up, down):  0.000E+00 4.823E-05

     total cpu time spent up to now is        9.2 secs

     total energy              =    -254.22372197 Ry
     estimated scf accuracy    <       0.00004969 Ry

     total magnetization       =     2.28 Bohr mag/cell
     absolute magnetization    =     2.36 Bohr mag/cell

     iteration #  7     ecut=    70.00 Ry     beta= 0.70
     Davidson diagonalization with overlap
     ethr =  3.11E-07,  avg # of iterations =  2.9

     negative rho (up, down):  0.000E+00 4.891E-05

     total cpu time spent up to now is       10.6 secs

     total energy              =    -254.22374488 Ry
     estimated scf accuracy    <       0.00000311 Ry

     total magnetization       =     2.28 Bohr mag/cell
     absolute magnetization    =     2.35 Bohr mag/cell

     iteration #  8     ecut=    70.00 Ry     beta= 0.70
     Davidson diagonalization with overlap
     ethr =  1.95E-08,  avg # of iterations =  3.4

     negative rho (up, down):  0.000E+00 4.912E-05

     total cpu time spent up to now is       11.8 secs

     total energy              =    -254.22374582 Ry
     estimated scf accuracy    <       0.00000092 Ry

     total magnetization       =     2.28 Bohr mag/cell
     absolute magnetization    =     2.35 Bohr mag/cell

     iteration #  9     ecut=    70.00 Ry     beta= 0.70
     Davidson diagonalization with overlap
     ethr =  5.75E-09,  avg # of iterations =  2.0

     negative rho (up, down):  0.000E+00 4.907E-05

     total cpu time spent up to now is       12.7 secs

     total energy              =    -254.22374603 Ry
     estimated scf accuracy    <       0.00000002 Ry

     total magnetization       =     2.28 Bohr mag/cell
     absolute magnetization    =     2.35 Bohr mag/cell

     iteration # 10     ecut=    70.00 Ry     beta= 0.70
     Davidson diagonalization with overlap
     ethr =  1.46E-10,  avg # of iterations =  3.9

     negative rho (up, down):  0.000E+00 4.905E-05

     Magnetic moment per site  (integrated on atomic sphere of radius R)
     atom   1 (R=0.357)  charge= 14.4708  magn=  2.3011

     total cpu time spent up to now is       13.7 secs

     End of self-consistent calculation

 ------ SPIN UP ------------


          k = 0.0000 0.0000 0.1000 (   831 PWs)   bands (ev):

   -71.1081 -37.3561 -37.3506 -37.3506   8.1715  13.9716  13.9716  14.0242
    15.1004  15.2157  38.8992  39.8482

          k = 0.0000-0.1000 0.2000 (   832 PWs)   bands (ev):

   -71.0977 -37.4130 -37.3707 -37.3519   8.9213  13.8047  13.9417  14.3953
    14.9168  15.2700  35.5426  38.1834

          k = 0.0000-0.2000 0.3000 (   827 PWs)   bands (ev):

   -71.0808 -37.5060 -37.4030 -37.3516  10.2220  13.5183  13.8458  14.9012
    15.0691  15.3338  30.9885  36.1155

          k = 0.0000-0.3000 0.4000 (   817 PWs)   bands (ev):

   -71.0638 -37.5984 -37.4348 -37.3507  11.3445  13.2422  14.2358  15.1049
    15.5218  15.8176  26.6422  34.5059

          k = 0.0000-0.4000 0.5000 (   823 PWs)   bands (ev):

   -71.0533 -37.6555 -37.4547 -37.3508  11.6152  13.0766  14.8802  15.1693
    16.3286  16.6099  23.3148  33.6358

          k =-0.1000 0.1000 0.1000 (   836 PWs)   bands (ev):

   -71.1029 -37.3957 -37.3510 -37.3510   8.5525  13.8579  13.8579  14.3231
    15.1321  15.1321  37.4815  37.4815

          k =-0.1000-0.1000 0.3000 (   825 PWs)   bands (ev):

   -71.0842 -37.4763 -37.3931 -37.3654   9.9455  13.7380  13.7506  14.7353
    14.9014  15.3964  33.2054  34.2381

          k =-0.1000-0.2000 0.4000 (   827 PWs)   bands (ev):

   -71.0675 -37.5582 -37.4299 -37.3694  11.2340  13.4236  13.6946  14.8366
    15.4366  15.8854  29.0597  32.0873

          k =-0.1000-0.3000 0.5000 (   825 PWs)   bands (ev):

   -71.0539 -37.6241 -37.4621 -37.3695  11.8638  13.2379  14.0204  15.0478
    15.7585  17.1879  25.0180  30.8975

          k =-0.1000 0.6000-0.4000 (   824 PWs)   bands (ev):

   -71.0487 -37.6491 -37.4746 -37.3694  11.9101  13.1773  14.2639  15.0758
    16.0275  18.4300  22.7998  30.4662

          k =-0.2000 0.2000 0.1000 (   826 PWs)   bands (ev):

   -71.0890 -37.4718 -37.3774 -37.3512   9.6172  13.5874  13.7247  14.9303
    15.0306  15.1989  33.2949  35.5927

          k =-0.2000-0.2000 0.5000 (   823 PWs)   bands (ev):

   -71.0541 -37.5991 -37.4737 -37.3807  12.1619  13.1217  13.6843  14.9474
    15.5666  17.4064  27.3589  27.9488

          k =-0.2000 0.7000-0.4000 (   820 PWs)   bands (ev):

   -71.0459 -37.6159 -37.5126 -37.3841  12.4381  13.1408  13.6227  15.1453
    15.6944  19.5952  23.8958  26.8940

          k =-0.3000 0.3000 0.1000 (   821 PWs)   bands (ev):

   -71.0718 -37.5603 -37.4152 -37.3516  10.9737  13.2869  13.7657  15.0772
    15.2698  15.7744  28.7936  33.9470

          k =-0.3000 0.2000 0.2000 (   833 PWs)   bands (ev):

   -71.0749 -37.5425 -37.3979 -37.3662  10.8392  13.3859  13.4034  15.0458
    15.2755  15.8229  31.1037  31.8529

          k =-0.3000 0.7000-0.3000 (   823 PWs)   bands (ev):

   -71.0428 -37.5732 -37.5732 -37.3885  12.8642  13.1609  13.1609  15.4499
    15.4499  22.4110  22.4110  24.6215

          k =-0.4000 0.4000 0.1000 (   820 PWs)   bands (ev):

   -71.0579 -37.6304 -37.4469 -37.3518  11.6357  13.0614  14.6952  15.1976
    15.3280  16.7970  24.8069  32.8299

          k =-0.4000 0.3000 0.2000 (   820 PWs)   bands (ev):

   -71.0608 -37.5986 -37.4395 -37.3719  11.9174  13.1214  13.5770  15.1293
    15.3647  17.0748  27.0942  30.1103

          k = 0.5000-0.5000 0.1000 (   824 PWs)   bands (ev):

   -71.0526 -37.6573 -37.4591 -37.3521  11.6955  12.9785  15.2164  15.3515
    15.4179  17.6835  22.7359  32.4338

          k = 0.5000-0.6000 0.2000 (   820 PWs)   bands (ev):

   -71.0520 -37.6279 -37.4726 -37.3740  12.0987  12.9948  14.2601  15.2286
    15.4449  18.7420  23.5913  29.3195

          k = 0.5000-0.7000 0.3000 (   831 PWs)   bands (ev):

   -71.0519 -37.6038 -37.4872 -37.3874  12.5003  13.0511  13.5582  15.2217
    15.4331  19.0670  25.6151  26.3797

          k = 0.4000-0.6000 0.3000 (   824 PWs)   bands (ev):

   -71.0484 -37.5904 -37.5214 -37.3914  12.5645  13.0835  13.6382  15.3053
    15.4349  21.0942  23.1065  25.7258

          k = 0.0000 0.0000 0.3000 (   835 PWs)   bands (ev):

   -71.0877 -37.4255 -37.3916 -37.3916   9.6269  14.0276  14.0276  14.4106
    14.4785  15.4556  35.2432  36.4935

          k = 0.0000-0.1000 0.4000 (   832 PWs)   bands (ev):

   -71.0716 -37.5021 -37.4246 -37.3987  10.8180  13.7853  13.8913  14.4653
    14.9908  15.6894  31.5361  34.3851

          k = 0.0000-0.2000 0.5000 (   818 PWs)   bands (ev):

   -71.0554 -37.5872 -37.4570 -37.3955  11.8115  13.5355  13.6660  14.8125
    15.7503  16.4532  27.1466  32.6749

          k = 0.0000-0.3000 0.6000 (   818 PWs)   bands (ev):

   -71.0454 -37.6402 -37.4774 -37.3934  12.0145  13.5248  13.7129  14.8826
    16.2807  18.2337  23.5827  31.6677

          k =-0.1000-0.1000 0.5000 (   819 PWs)   bands (ev):

   -71.0560 -37.5565 -37.4627 -37.4150  11.8278  13.3154  14.0088  14.5869
    15.4626  16.4452  29.6360  30.1406

          k =-0.1000-0.2000 0.6000 (   819 PWs)   bands (ev):

   -71.0433 -37.6077 -37.4991 -37.4159  12.3414  13.0837  13.8358  14.8955
    15.8951  18.2836  25.6836  28.7008

          k =-0.1000 0.7000-0.3000 (   817 PWs)   bands (ev):

   -71.0385 -37.6276 -37.5133 -37.4153  12.3376  13.2304  13.6643  14.9783
    16.1317  20.1582  23.0596  28.2426

          k =-0.2000 0.8000-0.3000 (   817 PWs)   bands (ev):

   -71.0359 -37.6015 -37.5520 -37.4201  12.7636  12.7792  13.5874  15.3434
    15.8131  20.9618  24.3195  25.3591

          k =-0.3000 0.3000 0.3000 (   820 PWs)   bands (ev):

   -71.0634 -37.5879 -37.4024 -37.4024  12.0527  13.1163  13.1163  15.2470
    15.2470  17.0925  29.5128  29.5128

          k = 0.6000-0.6000 0.3000 (   819 PWs)   bands (ev):

   -71.0541 -37.6012 -37.4556 -37.4067  12.5835  12.9642  13.4710  15.2921
    15.3433  18.8820  25.7016  28.5166

          k = 0.5000-0.5000 0.3000 (   822 PWs)   bands (ev):

   -71.0506 -37.5969 -37.4854 -37.4086  12.5236  12.9167  13.8962  15.3227
    15.3694  20.6156  23.1369  28.1761

          k = 0.5000-0.6000 0.4000 (   822 PWs)   bands (ev):

   -71.0500 -37.5666 -37.4976 -37.4330  12.7996  13.0822  13.3995  15.3516
    15.3764  21.3488  24.5149  25.4356

          k = 0.0000 0.0000 0.5000 (   827 PWs)   bands (ev):

   -71.0567 -37.5102 -37.4589 -37.4589  11.6858  13.4634  14.3747  14.3747
    15.0478  16.2702  32.0182  32.0182

          k = 0.0000-0.1000 0.6000 (   824 PWs)   bands (ev):

   -71.0418 -37.5697 -37.4931 -37.4671  12.2576  12.9444  14.4108  14.7243
    15.6569  17.6295  28.0644  30.1605

          k = 0.0000-0.2000 0.7000 (   816 PWs)   bands (ev):

   -71.0325 -37.6156 -37.5137 -37.4626  12.3208  12.7836  14.3361  14.8745
    16.2038  20.0116  24.2462  29.0819

          k =-0.1000-0.1000 0.7000 (   819 PWs)   bands (ev):

   -71.0303 -37.5925 -37.5350 -37.4784  12.3973  12.5312  14.4781  15.2094
    15.9461  19.8095  26.5583  26.9452

          k =-0.1000 0.8000-0.2000 (   815 PWs)   bands (ev):

   -71.0259 -37.6015 -37.5554 -37.4776  12.3329  12.4642  14.4246  15.4580
    16.0896  22.2628  23.6804  26.2840

          k = 0.5000-0.5000 0.5000 (   820 PWs)   bands (ev):

   -71.0493 -37.5015 -37.5015 -37.5015  13.1134  13.1134  13.1134  15.3804
    15.3804  24.1388  24.1388  24.1388

          k = 0.0000 0.0000 0.7000 (   816 PWs)   bands (ev):

   -71.0281 -37.5614 -37.5282 -37.5282  12.2383  12.4581  15.1504  15.1504
    15.6993  19.3651  28.1523  28.1523

          k = 0.0000-0.1000 0.8000 (   820 PWs)   bands (ev):

   -71.0197 -37.5910 -37.5504 -37.5313  12.1115  12.1610  15.3047  15.4783
    16.1286  21.9112  25.2937  26.9598

          k =-0.1000 0.9000-0.1000 (   832 PWs)   bands (ev):

   -71.0157 -37.5811 -37.5811 -37.5371  12.0023  12.0023  15.3967  16.0327
    16.0327  24.4213  24.4213  25.1148

          k = 0.0000 0.0000 0.9000 (   836 PWs)   bands (ev):

   -71.0118 -37.5773 -37.5732 -37.5732  11.8457  11.8488  16.0089  16.0089
    16.1085  24.0232  25.6672  25.6672

 ------ SPIN DOWN ----------


          k = 0.0000 0.0000 0.1000 (   831 PWs)   bands (ev):

   -68.4626 -34.7694 -34.7632 -34.7632   8.5402  15.8909  15.8909  15.9553
    17.4760  17.6209  39.1316  40.0597

          k = 0.0000-0.1000 0.2000 (   832 PWs)   bands (ev):

   -68.4512 -34.8331 -34.7853 -34.7647   9.3000  15.6908  15.8306  16.3624
    17.2362  17.6841  36.1132  38.5494

          k = 0.0000-0.2000 0.3000 (   827 PWs)   bands (ev):

   -68.4326 -34.9371 -34.8210 -34.7644  10.6689  15.3512  15.6123  17.1104
    17.1636  17.7499  31.8029  36.4894

          k = 0.0000-0.3000 0.4000 (   817 PWs)   bands (ev):

   -68.4139 -35.0402 -34.8562 -34.7637  12.1544  15.0268  15.6145  17.3229
    17.8514  17.9551  27.6614  34.8486

          k = 0.0000-0.4000 0.5000 (   823 PWs)   bands (ev):

   -68.4024 -35.1039 -34.8781 -34.7637  12.8680  14.8335  16.2941  17.4292
    18.1520  18.5429  24.6252  33.9497

          k =-0.1000 0.1000 0.1000 (   836 PWs)   bands (ev):

   -68.4568 -34.8136 -34.7636 -34.7636   8.9252  15.7558  15.7558  16.2793
    17.5134  17.5134  37.9078  37.9078

          k =-0.1000-0.1000 0.3000 (   825 PWs)   bands (ev):

   -68.4363 -34.9038 -34.8101 -34.7797  10.3592  15.5793  15.6088  16.9053
    16.9790  17.8141  33.9166  34.9092

          k =-0.1000-0.2000 0.4000 (   827 PWs)   bands (ev):

   -68.4179 -34.9953 -34.8509 -34.7842  11.8321  15.2139  15.4013  17.0327
    17.6901  18.0318  29.9506  32.7963

          k =-0.1000-0.3000 0.5000 (   825 PWs)   bands (ev):

   -68.4030 -35.0687 -34.8865 -34.7844  12.9860  14.9877  15.4693  17.2571
    17.9940  18.9753  26.1223  31.5989

          k =-0.1000 0.6000-0.4000 (   824 PWs)   bands (ev):

   -68.3973 -35.0965 -34.9004 -34.7843  13.2640  14.9242  15.7321  17.3131
    18.2026  19.7919  24.1511  31.1543

          k =-0.2000 0.2000 0.1000 (   826 PWs)   bands (ev):

   -68.4416 -34.8988 -34.7928 -34.7640  10.0156  15.4332  15.5631  16.9327
    17.3631  17.5965  33.9901  36.1138

          k =-0.2000-0.2000 0.5000 (   823 PWs)   bands (ev):

   -68.4033 -35.0407 -34.8999 -34.7967  13.1227  14.8246  15.3231  17.1365
    17.8642  19.2164  28.3523  28.7457

          k =-0.2000 0.7000-0.4000 (   820 PWs)   bands (ev):

   -68.3942 -35.0592 -34.9434 -34.8004  13.8339  14.7875  15.1658  17.3554
    17.9289  20.9974  25.0387  27.7452

          k =-0.3000 0.3000 0.1000 (   821 PWs)   bands (ev):

   -68.4227 -34.9977 -34.8346 -34.7646  11.5407  15.0757  15.3777  17.3809
    17.6912  17.8140  29.6920  34.4597

          k =-0.3000 0.2000 0.2000 (   833 PWs)   bands (ev):

   -68.4261 -34.9776 -34.8156 -34.7806  11.3156  15.1602  15.1706  17.3694
    17.6777  17.8382  31.8888  32.5681

          k =-0.3000 0.7000-0.3000 (   823 PWs)   bands (ev):

   -68.3908 -35.0113 -35.0113 -34.8051  14.4627  14.7017  14.7017  17.6720
    17.6720  23.5922  23.5922  25.5746

          k =-0.4000 0.4000 0.1000 (   820 PWs)   bands (ev):

   -68.4074 -35.0759 -34.8696 -34.7650  12.7208  14.8090  15.8024  17.4863
    17.7727  18.7121  25.9412  33.3042

          k =-0.4000 0.3000 0.2000 (   820 PWs)   bands (ev):

   -68.4105 -35.0402 -34.8620 -34.7872  12.7570  14.8356  15.0796  17.4461
    17.7826  18.9642  28.0404  30.8538

          k = 0.5000-0.5000 0.1000 (   824 PWs)   bands (ev):

   -68.4016 -35.1058 -34.8831 -34.7654  13.0026  14.7113  16.4391  17.5243
    17.8065  19.2360  24.1245  32.8895

          k = 0.5000-0.6000 0.2000 (   820 PWs)   bands (ev):

   -68.4009 -35.0730 -34.8987 -34.7896  13.4088  14.6854  15.5360  17.5509
    17.8407  20.2339  24.7966  30.0485

          k = 0.5000-0.7000 0.3000 (   831 PWs)   bands (ev):

   -68.4007 -35.0458 -34.9153 -34.8043  13.7894  14.6390  14.9852  17.5502
    17.8251  20.6262  26.6473  27.2123

          k = 0.4000-0.6000 0.3000 (   824 PWs)   bands (ev):

   -68.3969 -35.0310 -34.9536 -34.8088  14.0475  14.6540  15.0406  17.6467
    17.8035  22.3257  24.2978  26.6054

          k = 0.0000 0.0000 0.3000 (   835 PWs)   bands (ev):

   -68.4402 -34.8476 -34.8084 -34.8084  10.0233  15.9135  15.9135  16.3854
    16.6958  17.8820  35.7773  37.2144

          k = 0.0000-0.1000 0.4000 (   832 PWs)   bands (ev):

   -68.4225 -34.9328 -34.8448 -34.8165  11.3085  15.6766  15.7484  16.5301
    17.0228  18.0462  32.3488  35.1736

          k = 0.0000-0.2000 0.5000 (   818 PWs)   bands (ev):

   -68.4047 -35.0275 -34.8808 -34.8134  12.6867  15.2327  15.4846  16.8889
    17.8773  18.4459  28.1266  33.4464

          k = 0.0000-0.3000 0.6000 (   818 PWs)   bands (ev):

   -68.3937 -35.0864 -34.9032 -34.8110  13.3608  15.2566  15.3198  17.0182
    18.4882  19.6008  24.8088  32.3934

          k =-0.1000-0.1000 0.5000 (   819 PWs)   bands (ev):

   -68.4054 -34.9932 -34.8873 -34.8347  12.5727  15.1675  15.8256  16.6050
    17.5920  18.4796  30.5577  30.9090

          k =-0.1000-0.2000 0.6000 (   819 PWs)   bands (ev):

   -68.3915 -35.0500 -34.9277 -34.8358  13.5790  14.7593  15.6327  16.9583
    18.0593  19.8282  26.7030  29.5184

          k =-0.1000 0.7000-0.3000 (   817 PWs)   bands (ev):

   -68.3862 -35.0720 -34.9435 -34.8351  13.8414  14.7939  15.4506  17.0573
    18.3148  21.3421  24.2873  29.0422

          k =-0.2000 0.8000-0.3000 (   817 PWs)   bands (ev):

   -68.3833 -35.0425 -34.9870 -34.8402  14.2780  14.4232  15.3182  17.4381
    17.9621  22.1965  25.4038  26.2390

          k =-0.3000 0.3000 0.3000 (   820 PWs)   bands (ev):

   -68.4134 -35.0282 -34.8211 -34.8211  12.6862  14.8128  14.8128  17.6425
    17.6425  19.0031  30.3281  30.3282

          k = 0.6000-0.6000 0.3000 (   819 PWs)   bands (ev):

   -68.4032 -35.0431 -34.8803 -34.8261  13.7782  14.6084  14.8324  17.6822
    17.7864  20.4888  26.6763  29.3395

          k = 0.5000-0.5000 0.3000 (   822 PWs)   bands (ev):

   -68.3992 -35.0384 -34.9133 -34.8283  13.9246  14.5425  15.2108  17.7123
    17.8293  21.8621  24.3459  28.9995

          k = 0.5000-0.6000 0.4000 (   822 PWs)   bands (ev):

   -68.3986 -35.0045 -34.9274 -34.8554  14.3036  14.5896  14.7718  17.7779
    17.8244  22.6147  25.5648  26.3068

          k = 0.0000 0.0000 0.5000 (   827 PWs)   bands (ev):

   -68.4062 -34.9423 -34.8828 -34.8828  12.3642  15.4463  16.2534  16.2534
    17.0985  18.3930  32.8210  32.8211

          k = 0.0000-0.1000 0.6000 (   824 PWs)   bands (ev):

   -68.3898 -35.0077 -34.9207 -34.8924  13.3568  14.7739  16.2955  16.6705
    17.7730  19.2544  28.9557  30.9275

          k = 0.0000-0.2000 0.7000 (   816 PWs)   bands (ev):

   -68.3797 -35.0583 -34.9436 -34.8876  13.8493  14.4117  16.2124  16.8427
    18.4006  21.1939  25.2950  29.7933

          k =-0.1000-0.1000 0.7000 (   819 PWs)   bands (ev):

   -68.3772 -35.0324 -34.9674 -34.9048  13.8386  14.2792  16.3487  17.2087
    18.0954  21.0312  27.4790  27.7222

          k =-0.1000 0.8000-0.2000 (   815 PWs)   bands (ev):

   -68.3724 -35.0421 -34.9903 -34.9039  13.9915  14.0878  16.2625  17.4991
    18.2566  23.2633  24.6827  27.0776

          k = 0.5000-0.5000 0.5000 (   820 PWs)   bands (ev):

   -68.3978 -34.9320 -34.9320 -34.9320  14.5897  14.5897  14.5897  17.8435
    17.8435  25.1938  25.1938  25.1938

          k = 0.0000 0.0000 0.7000 (   816 PWs)   bands (ev):

   -68.3749 -34.9982 -34.9597 -34.9597  13.6557  14.2409  17.1121  17.1121
    17.8325  20.5587  28.8630  28.8630

          k = 0.0000-0.1000 0.8000 (   820 PWs)   bands (ev):

   -68.3657 -35.0301 -34.9842 -34.9635  13.7231  13.8523  17.3126  17.4871
    18.3153  22.8253  26.0728  27.5910

          k =-0.1000 0.9000-0.1000 (   832 PWs)   bands (ev):

   -68.3613 -35.0186 -35.0186 -34.9696  13.6648  13.6648  17.4023  18.1851
    18.1851  25.1661  25.1661  25.7739

          k = 0.0000 0.0000 0.9000 (   836 PWs)   bands (ev):

   -68.3570 -35.0144 -35.0095 -35.0095  13.4945  13.5251  18.1556  18.1556
    18.2960  24.6573  26.1813  26.1813

     the Fermi energy is    16.0982 ev

!    total energy              =    -254.22374604 Ry
     estimated scf accuracy    <          7.2E-10 Ry
     smearing contrib. (-TS)   =       0.00159916 Ry
     internal energy E=F+TS    =    -254.22534521 Ry

     The total energy is F=E-TS. E is the sum of the following terms:
     one-electron contribution =    -118.46856026 Ry
     hartree contribution      =      68.01779140 Ry
     xc contribution           =     -34.38480124 Ry
     ewald contribution        =    -169.38977510 Ry

     total magnetization       =     2.28 Bohr mag/cell
     absolute magnetization    =     2.35 Bohr mag/cell

     convergence has been achieved in  10 iterations

     Writing output data file ./tempdir/fe.save/

     init_run     :      0.95s CPU      0.97s WALL (       1 calls)
     electrons    :     12.12s CPU     12.58s WALL (       1 calls)

     Called by init_run:
     wfcinit      :      0.25s CPU      0.25s WALL (       1 calls)
     potinit      :      0.03s CPU      0.03s WALL (       1 calls)
     hinit0       :      0.57s CPU      0.57s WALL (       1 calls)

     Called by electrons:
     c_bands      :      7.74s CPU      7.86s WALL (      10 calls)
     sum_band     :      2.88s CPU      3.07s WALL (      10 calls)
     v_of_rho     :      0.23s CPU      0.24s WALL (      11 calls)
     newd         :      1.14s CPU      1.29s WALL (      11 calls)
     mix_rho      :      0.09s CPU      0.09s WALL (      10 calls)

     Called by c_bands:
     init_us_2    :      0.17s CPU      0.17s WALL (     924 calls)
     cegterg      :      6.71s CPU      6.82s WALL (     440 calls)

     Called by *egterg:
     cdiaghg      :      0.22s CPU      0.23s WALL (    1639 calls)
     h_psi        :      6.01s CPU      6.10s WALL (    1683 calls)
     s_psi        :      0.09s CPU      0.09s WALL (    1683 calls)
     g_psi        :      0.03s CPU      0.03s WALL (    1199 calls)

     Called by h_psi:
     h_psi:calbec :      0.13s CPU      0.13s WALL (    1683 calls)
     vloc_psi     :      5.74s CPU      5.83s WALL (    1683 calls)
     add_vuspsi   :      0.10s CPU      0.10s WALL (    1683 calls)

     General routines
     calbec       :      0.17s CPU      0.17s WALL (    2123 calls)
     fft          :      0.25s CPU      0.25s WALL (     115 calls)
     ffts         :      0.01s CPU      0.01s WALL (      42 calls)
     fftw         :      6.05s CPU      6.15s WALL (   33082 calls)
     interpolate  :      0.08s CPU      0.08s WALL (      22 calls)

     Parallel routines

     PWSCF        :     13.20s CPU     13.70s WALL


   This run was terminated on:  22: 1:57  18Apr2021            

=------------------------------------------------------------------------------=
   JOB DONE.
=------------------------------------------------------------------------------=
