
     Program PWSCF v.6.7GPU starts on 18Apr2021 at 22: 1: 1 

     This program is part of the open-source Quantum ESPRESSO suite
     for quantum simulation of materials; please cite
         "P. Giannozzi et al., J. Phys.:Condens. Matter 21 395502 (2009);
         "P. Giannozzi et al., J. Phys.:Condens. Matter 29 465901 (2017);
         "P. Giannozzi et al., J. Chem. Phys. 152 154105 (2020);
          URL http://www.quantum-espresso.org", 
     in publications or presentations arising from this work. More details at
     http://www.quantum-espresso.org/quote

     Parallel version (MPI & OpenMP), running on       2 processor cores
     Number of MPI processes:                 2
     Threads/MPI process:                     1

     MPI processes distributed on     1 nodes
     K-points division:     npool     =       2
     Waiting for input...
     Reading input from standard input

     Current dimensions of program PWSCF are:
     Max number of different atomic species (ntypx) = 10
     Max number of k-points (npk) =  40000
     Max angular momentum in pseudopotentials (lmaxx) =  3

     Subspace diagonalization in iterative solution of the eigenvalue problem:
     a serial algorithm will be used


     G-vector sticks info
     --------------------
     sticks:   dense  smooth     PW     G-vecs:    dense   smooth      PW
     Sum        1247     411    129                27883     5281     959

     Using Slab Decomposition



     bravais-lattice index     =            3
     lattice parameter (alat)  =       5.1000  a.u.
     unit-cell volume          =      66.3255 (a.u.)^3
     number of atoms/cell      =            1
     number of atomic types    =            1
     number of electrons       =        16.00
     number of Kohn-Sham states=           12
     kinetic-energy cutoff     =      70.0000  Ry
     charge density cutoff     =     850.0000  Ry
     scf convergence threshold =      1.0E-08
     mixing beta               =       0.7000
     number of iterations used =            8  plain     mixing
     Exchange-correlation= LDA
                           (   1   1   0   0   0   0   0)

     celldm(1)=   5.100000  celldm(2)=   0.000000  celldm(3)=   0.000000
     celldm(4)=   0.000000  celldm(5)=   0.000000  celldm(6)=   0.000000

     crystal axes: (cart. coord. in units of alat)
               a(1) = (   0.500000   0.500000   0.500000 )  
               a(2) = (  -0.500000   0.500000   0.500000 )  
               a(3) = (  -0.500000  -0.500000   0.500000 )  

     reciprocal axes: (cart. coord. in units 2 pi/alat)
               b(1) = (  1.000000  0.000000  1.000000 )  
               b(2) = ( -1.000000  1.000000  0.000000 )  
               b(3) = (  0.000000 -1.000000  1.000000 )  


     PseudoPot. # 1 for Fe read from file:
     /home/pietro/repositories/materials-for-max-qe2021-online-school/pseudo/Fe.pz-spn-rrkjus_psl.0.2.1.UPF
     MD5 check sum: 3cbc4c6ff80f64c0ae98e6ac432cb3b7
     Pseudo is Ultrasoft + core correction, Zval = 16.0
     Generated using "atomic" code by A. Dal Corso  v.5.0.2 svn rev. 9415
     Using radial grid of 1191 points,  6 beta functions with: 
                l(1) =   0
                l(2) =   0
                l(3) =   1
                l(4) =   1
                l(5) =   2
                l(6) =   2
     Q(r) pseudized with 0 coefficients 


     atomic species   valence    mass     pseudopotential
        Fe            16.00    55.84500     Fe( 1.00)

     Starting magnetic structure 
     atomic species   magnetization
        Fe           0.700

     48 Sym. Ops., with inversion, found



   Cartesian axes

     site n.     atom                  positions (alat units)
         1           Fe  tau(   1) = (   0.0000000   0.0000000   0.0000000  )

     number of k points=    44  Marzari-Vanderbilt smearing, width (Ry)=  0.0200
                       cart. coord. in units 2pi/alat
        k(    1) = (   0.0000000   0.0000000   0.1000000), wk =   0.0060000
        k(    2) = (   0.0000000  -0.1000000   0.2000000), wk =   0.0240000
        k(    3) = (   0.0000000  -0.2000000   0.3000000), wk =   0.0240000
        k(    4) = (   0.0000000  -0.3000000   0.4000000), wk =   0.0240000
        k(    5) = (   0.0000000  -0.4000000   0.5000000), wk =   0.0240000
        k(    6) = (  -0.1000000   0.1000000   0.1000000), wk =   0.0080000
        k(    7) = (  -0.1000000  -0.1000000   0.3000000), wk =   0.0240000
        k(    8) = (  -0.1000000  -0.2000000   0.4000000), wk =   0.0480000
        k(    9) = (  -0.1000000  -0.3000000   0.5000000), wk =   0.0480000
        k(   10) = (  -0.1000000   0.6000000  -0.4000000), wk =   0.0240000
        k(   11) = (  -0.2000000   0.2000000   0.1000000), wk =   0.0240000
        k(   12) = (  -0.2000000  -0.2000000   0.5000000), wk =   0.0240000
        k(   13) = (  -0.2000000   0.7000000  -0.4000000), wk =   0.0480000
        k(   14) = (  -0.3000000   0.3000000   0.1000000), wk =   0.0240000
        k(   15) = (  -0.3000000   0.2000000   0.2000000), wk =   0.0240000
        k(   16) = (  -0.3000000   0.7000000  -0.3000000), wk =   0.0080000
        k(   17) = (  -0.4000000   0.4000000   0.1000000), wk =   0.0240000
        k(   18) = (  -0.4000000   0.3000000   0.2000000), wk =   0.0480000
        k(   19) = (   0.5000000  -0.5000000   0.1000000), wk =   0.0120000
        k(   20) = (   0.5000000  -0.6000000   0.2000000), wk =   0.0480000
        k(   21) = (   0.5000000  -0.7000000   0.3000000), wk =   0.0240000
        k(   22) = (   0.4000000  -0.6000000   0.3000000), wk =   0.0240000
        k(   23) = (   0.0000000   0.0000000   0.3000000), wk =   0.0060000
        k(   24) = (   0.0000000  -0.1000000   0.4000000), wk =   0.0240000
        k(   25) = (   0.0000000  -0.2000000   0.5000000), wk =   0.0240000
        k(   26) = (   0.0000000  -0.3000000   0.6000000), wk =   0.0240000
        k(   27) = (  -0.1000000  -0.1000000   0.5000000), wk =   0.0240000
        k(   28) = (  -0.1000000  -0.2000000   0.6000000), wk =   0.0480000
        k(   29) = (  -0.1000000   0.7000000  -0.3000000), wk =   0.0240000
        k(   30) = (  -0.2000000   0.8000000  -0.3000000), wk =   0.0240000
        k(   31) = (  -0.3000000   0.3000000   0.3000000), wk =   0.0080000
        k(   32) = (   0.6000000  -0.6000000   0.3000000), wk =   0.0240000
        k(   33) = (   0.5000000  -0.5000000   0.3000000), wk =   0.0120000
        k(   34) = (   0.5000000  -0.6000000   0.4000000), wk =   0.0240000
        k(   35) = (   0.0000000   0.0000000   0.5000000), wk =   0.0060000
        k(   36) = (   0.0000000  -0.1000000   0.6000000), wk =   0.0240000
        k(   37) = (   0.0000000  -0.2000000   0.7000000), wk =   0.0240000
        k(   38) = (  -0.1000000  -0.1000000   0.7000000), wk =   0.0240000
        k(   39) = (  -0.1000000   0.8000000  -0.2000000), wk =   0.0240000
        k(   40) = (   0.5000000  -0.5000000   0.5000000), wk =   0.0020000
        k(   41) = (   0.0000000   0.0000000   0.7000000), wk =   0.0060000
        k(   42) = (   0.0000000  -0.1000000   0.8000000), wk =   0.0240000
        k(   43) = (  -0.1000000   0.9000000  -0.1000000), wk =   0.0080000
        k(   44) = (   0.0000000   0.0000000   0.9000000), wk =   0.0060000

     Dense  grid:    27883 G-vectors     FFT dimensions: (  45,  45,  45)

     Smooth grid:     5281 G-vectors     FFT dimensions: (  24,  24,  24)

     Estimated max dynamical RAM per process >      78.00 MB

     Estimated total dynamical RAM >     142.40 MB

     Check: negative core charge=   -0.000011
     Generating pointlists ...
     new r_m :   0.3572 (alat units)  1.8219 (a.u.) for type    1

     Initial potential from superposition of free atoms

     starting charge   15.99965, renormalised to   16.00000
     Starting wfcs are   13 randomized atomic wfcs

     total cpu time spent up to now is        0.7 secs

     Self-consistent Calculation

     iteration #  1     ecut=    70.00 Ry     beta= 0.70
     Davidson diagonalization with overlap
     ethr =  1.00E-02,  avg # of iterations =  3.6

     negative rho (up, down):  0.000E+00 4.738E-05

     total cpu time spent up to now is        1.3 secs

     total energy              =    -253.93064513 Ry
     estimated scf accuracy    <       1.57830252 Ry

     total magnetization       =     3.67 Bohr mag/cell
     absolute magnetization    =     3.69 Bohr mag/cell

     iteration #  2     ecut=    70.00 Ry     beta= 0.70
     Davidson diagonalization with overlap
     ethr =  9.86E-03,  avg # of iterations =  1.2

     negative rho (up, down):  0.000E+00 5.042E-05

     total cpu time spent up to now is        1.9 secs

     total energy              =    -254.14218294 Ry
     estimated scf accuracy    <       0.32632510 Ry

     total magnetization       =     2.89 Bohr mag/cell
     absolute magnetization    =     2.95 Bohr mag/cell

     iteration #  3     ecut=    70.00 Ry     beta= 0.70
     Davidson diagonalization with overlap
     ethr =  2.04E-03,  avg # of iterations =  2.2

     negative rho (up, down):  0.000E+00 4.743E-05

     total cpu time spent up to now is        2.5 secs

     total energy              =    -254.17182210 Ry
     estimated scf accuracy    <       0.39690661 Ry

     total magnetization       =     2.15 Bohr mag/cell
     absolute magnetization    =     2.21 Bohr mag/cell

     iteration #  4     ecut=    70.00 Ry     beta= 0.70
     Davidson diagonalization with overlap
     ethr =  2.04E-03,  avg # of iterations =  2.0

     negative rho (up, down):  0.000E+00 2.421E-05

     total cpu time spent up to now is        3.0 secs

     total energy              =    -254.23187294 Ry
     estimated scf accuracy    <       0.00493581 Ry

     total magnetization       =     1.97 Bohr mag/cell
     absolute magnetization    =     2.03 Bohr mag/cell

     iteration #  5     ecut=    70.00 Ry     beta= 0.70
     Davidson diagonalization with overlap
     ethr =  3.08E-05,  avg # of iterations =  4.4

     negative rho (up, down):  0.000E+00 1.854E-05

     total cpu time spent up to now is        3.7 secs

     total energy              =    -254.23506283 Ry
     estimated scf accuracy    <       0.00079301 Ry

     total magnetization       =     1.86 Bohr mag/cell
     absolute magnetization    =     1.90 Bohr mag/cell

     iteration #  6     ecut=    70.00 Ry     beta= 0.70
     Davidson diagonalization with overlap
     ethr =  4.96E-06,  avg # of iterations =  2.3

     negative rho (up, down):  0.000E+00 1.517E-05

     total cpu time spent up to now is        4.3 secs

     total energy              =    -254.23531759 Ry
     estimated scf accuracy    <       0.00038350 Ry

     total magnetization       =     1.87 Bohr mag/cell
     absolute magnetization    =     1.91 Bohr mag/cell

     iteration #  7     ecut=    70.00 Ry     beta= 0.70
     Davidson diagonalization with overlap
     ethr =  2.40E-06,  avg # of iterations =  1.8

     negative rho (up, down):  0.000E+00 1.556E-05

     total cpu time spent up to now is        4.9 secs

     total energy              =    -254.23540714 Ry
     estimated scf accuracy    <       0.00000656 Ry

     total magnetization       =     1.86 Bohr mag/cell
     absolute magnetization    =     1.90 Bohr mag/cell

     iteration #  8     ecut=    70.00 Ry     beta= 0.70
     Davidson diagonalization with overlap
     ethr =  4.10E-08,  avg # of iterations =  3.7

     negative rho (up, down):  0.000E+00 1.585E-05

     total cpu time spent up to now is        5.5 secs

     total energy              =    -254.23541013 Ry
     estimated scf accuracy    <       0.00000092 Ry

     total magnetization       =     1.86 Bohr mag/cell
     absolute magnetization    =     1.90 Bohr mag/cell

     iteration #  9     ecut=    70.00 Ry     beta= 0.70
     Davidson diagonalization with overlap
     ethr =  5.76E-09,  avg # of iterations =  2.2

     negative rho (up, down):  0.000E+00 1.581E-05

     total cpu time spent up to now is        6.1 secs

     total energy              =    -254.23541053 Ry
     estimated scf accuracy    <       0.00000011 Ry

     total magnetization       =     1.86 Bohr mag/cell
     absolute magnetization    =     1.90 Bohr mag/cell

     iteration # 10     ecut=    70.00 Ry     beta= 0.70
     Davidson diagonalization with overlap
     ethr =  6.61E-10,  avg # of iterations =  2.2

     negative rho (up, down):  0.000E+00 1.579E-05

     Magnetic moment per site  (integrated on atomic sphere of radius R)
     atom   1 (R=0.357)  charge= 14.2828  magn=  1.8581

     total cpu time spent up to now is        6.7 secs

     End of self-consistent calculation

 ------ SPIN UP ------------


          k = 0.0000 0.0000 0.1000 (   651 PWs)   bands (ev):

   -66.0144 -32.0643 -32.0520 -32.0520  12.1747  18.8314  18.8314  18.9057
    20.4100  20.5839  46.4536  47.5384

          k = 0.0000-0.1000 0.2000 (   653 PWs)   bands (ev):

   -65.9872 -32.1884 -32.0938 -32.0558  13.0606  18.5891  18.7782  19.4233
    20.1385  20.6671  43.4006  46.1089

          k = 0.0000-0.2000 0.3000 (   651 PWs)   bands (ev):

   -65.9429 -32.3925 -32.1608 -32.0553  14.5199  18.1787  18.6331  20.1276
    20.3667  20.7666  38.8800  43.8428

          k = 0.0000-0.3000 0.4000 (   658 PWs)   bands (ev):

   -65.8985 -32.5939 -32.2276 -32.0552  15.5591  17.7877  19.1837  20.4260
    21.0171  21.4219  34.2846  41.9812

          k = 0.0000-0.4000 0.5000 (   656 PWs)   bands (ev):

   -65.8708 -32.7165 -32.2682 -32.0550  15.6853  17.5551  20.0523  20.5310
    22.1424  22.1489  30.7773  40.9490

          k =-0.1000 0.1000 0.1000 (   652 PWs)   bands (ev):

   -66.0006 -32.1497 -32.0526 -32.0526  12.6273  18.6655  18.6655  19.3251
    20.4590  20.4590  45.3051  45.3051

          k =-0.1000-0.1000 0.3000 (   660 PWs)   bands (ev):

   -65.9520 -32.3282 -32.1413 -32.0849  14.2348  18.4889  18.4912  19.8770
    20.1306  20.8603  40.9774  42.5866

          k =-0.1000-0.2000 0.4000 (   655 PWs)   bands (ev):

   -65.9082 -32.5053 -32.2187 -32.0929  15.5912  18.0278  18.4314  20.0333
    20.9132  21.5057  36.8254  40.1126

          k =-0.1000-0.3000 0.5000 (   657 PWs)   bands (ev):

   -65.8726 -32.6475 -32.2863 -32.0939  16.0672  17.7784  18.8717  20.3450
    21.3489  23.1200  32.5178  38.7562

          k =-0.1000 0.6000-0.4000 (   652 PWs)   bands (ev):

   -65.8590 -32.7010 -32.3121 -32.0937  16.0408  17.6954  19.1859  20.3940
    21.7052  24.4259  30.2164  38.2627

          k =-0.2000 0.2000 0.1000 (   653 PWs)   bands (ev):

   -65.9643 -32.3171 -32.1085 -32.0543  13.8638  18.2763  18.4633  20.1739
    20.3153  20.5618  41.2000  43.4452

          k =-0.2000-0.2000 0.5000 (   651 PWs)   bands (ev):

   -65.8733 -32.5923 -32.3144 -32.1161  16.5367  17.5931  18.4226  20.1936
    21.1010  23.4491  34.8075  35.8534

          k =-0.2000 0.7000-0.4000 (   660 PWs)   bands (ev):

   -65.8517 -32.6279 -32.3998 -32.1232  16.7419  17.6424  18.3165  20.4826
    21.2616  25.9737  31.1862  34.5326

          k =-0.3000 0.3000 0.1000 (   647 PWs)   bands (ev):

   -65.9193 -32.5101 -32.1873 -32.0563  15.2955  17.8505  18.5457  20.3931
    20.6727  21.3441  36.5527  41.6147

          k =-0.3000 0.2000 0.2000 (   644 PWs)   bands (ev):

   -65.9272 -32.4691 -32.1517 -32.0861  15.2378  17.9768  18.0197  20.3412
    20.6830  21.4099  38.7876  39.8652

          k =-0.3000 0.7000-0.3000 (   652 PWs)   bands (ev):

   -65.8437 -32.5333 -32.5333 -32.1304  17.2951  17.6729  17.6729  20.9139
    20.9139  29.2006  29.2006  32.3260

          k =-0.4000 0.4000 0.1000 (   655 PWs)   bands (ev):

   -65.8827 -32.6627 -32.2532 -32.0584  15.7863  17.5346  19.7805  20.5683
    20.7658  22.6505  32.3146  40.2951

          k =-0.4000 0.3000 0.2000 (   654 PWs)   bands (ev):

   -65.8901 -32.5922 -32.2425 -32.1003  16.2724  17.6155  18.3049  20.4682
    20.8196  23.0434  34.6707  37.8971

          k = 0.5000-0.5000 0.1000 (   662 PWs)   bands (ev):

   -65.8687 -32.7208 -32.2783 -32.0593  15.7733  17.4191  20.6079  20.6857
    20.8040  23.5558  30.1822  39.8164

          k = 0.5000-0.6000 0.2000 (   656 PWs)   bands (ev):

   -65.8670 -32.6567 -32.3124 -32.1055  16.3153  17.4446  19.1969  20.6189
    20.9279  24.9362  30.9701  36.9908

          k = 0.5000-0.7000 0.3000 (   660 PWs)   bands (ev):

   -65.8664 -32.6028 -32.3473 -32.1321  16.8558  17.5250  18.2722  20.6029
    20.9175  25.4328  32.8195  34.1439

          k = 0.4000-0.6000 0.3000 (   662 PWs)   bands (ev):

   -65.8573 -32.5749 -32.4225 -32.1410  16.8979  17.5799  18.3522  20.7267
    20.9127  27.6373  30.2488  33.3218

          k = 0.0000 0.0000 0.3000 (   655 PWs)   bands (ev):

   -65.9613 -32.2210 -32.1368 -32.1368  13.8791  18.8984  18.8984  19.4387
    19.4845  20.9490  42.7227  45.1215

          k = 0.0000-0.1000 0.4000 (   652 PWs)   bands (ev):

   -65.9194 -32.3845 -32.2057 -32.1541  15.1917  18.5083  18.6998  19.4961
    20.2512  21.2910  39.4462  42.7683

          k = 0.0000-0.2000 0.5000 (   655 PWs)   bands (ev):

   -65.8772 -32.5674 -32.2746 -32.1497  16.1163  18.1778  18.3794  19.9948
    21.3235  22.2553  34.8152  41.1374

          k = 0.0000-0.3000 0.6000 (   654 PWs)   bands (ev):

   -65.8511 -32.6803 -32.3166 -32.1455  16.1739  18.1802  18.4270  20.1060
    22.0797  24.2453  31.0003  39.9692

          k =-0.1000-0.1000 0.5000 (   653 PWs)   bands (ev):

   -65.8790 -32.5008 -32.2883 -32.1891  16.2269  17.8307  18.8599  19.6711
    20.9243  22.2764  37.3585  38.2581

          k =-0.1000-0.2000 0.6000 (   658 PWs)   bands (ev):

   -65.8462 -32.6088 -32.3658 -32.1912  16.6411  17.5469  18.6111  20.1129
    21.5350  24.4709  33.1746  36.5130

          k =-0.1000 0.7000-0.3000 (   654 PWs)   bands (ev):

   -65.8337 -32.6506 -32.3961 -32.1895  16.5526  17.7561  18.3761  20.2359
    21.8646  26.5005  30.3944  35.9729

          k =-0.2000 0.8000-0.3000 (   661 PWs)   bands (ev):

   -65.8270 -32.5920 -32.4824 -32.1988  17.0870  17.1579  18.2758  20.7452
    21.4147  27.5821  31.4234  32.9988

          k =-0.3000 0.3000 0.3000 (   649 PWs)   bands (ev):

   -65.8967 -32.5678 -32.1658 -32.1658  16.5984  17.6092  17.6092  20.6437
    20.6437  23.0854  37.0411  37.0411

          k = 0.6000-0.6000 0.3000 (   661 PWs)   bands (ev):

   -65.8720 -32.5985 -32.2805 -32.1772  16.9844  17.4069  18.1755  20.7131
    20.7908  25.2318  33.0925  35.9178

          k = 0.5000-0.5000 0.3000 (   654 PWs)   bands (ev):

   -65.8625 -32.5904 -32.3429 -32.1813  16.8628  17.3451  18.7118  20.7596
    20.8313  27.0651  30.4395  35.5298

          k = 0.5000-0.6000 0.4000 (   660 PWs)   bands (ev):

   -65.8608 -32.5236 -32.3737 -32.2341  17.2077  17.5896  18.0512  20.8023
    20.8407  28.0331  31.5509  33.0272

          k = 0.0000 0.0000 0.5000 (   639 PWs)   bands (ev):

   -65.8811 -32.4043 -32.2776 -32.2776  16.0911  18.0171  19.3743  19.3743
    20.3268  22.0799  40.3670  40.3674

          k = 0.0000-0.1000 0.6000 (   655 PWs)   bands (ev):

   -65.8429 -32.5271 -32.3499 -32.2987  16.5852  17.3016  19.4205  19.8636
    21.1875  23.7217  35.7971  38.2147

          k = 0.0000-0.2000 0.7000 (   656 PWs)   bands (ev):

   -65.8191 -32.6219 -32.3938 -32.2911  16.5016  17.1270  19.3133  20.0826
    21.9688  26.4208  31.5899  36.9204

          k =-0.1000-0.1000 0.7000 (   664 PWs)   bands (ev):

   -65.8135 -32.5714 -32.4411 -32.3222  16.6431  16.7291  19.5161  20.5447
    21.6003  26.2524  33.9815  34.5966

          k =-0.1000 0.8000-0.2000 (   661 PWs)   bands (ev):

   -65.8023 -32.5885 -32.4858 -32.3199  16.4776  16.6734  19.4426  20.8995
    21.8027  28.9609  30.8826  33.7612

          k = 0.5000-0.5000 0.5000 (   664 PWs)   bands (ev):

   -65.8587 -32.3837 -32.3837 -32.3837  17.6405  17.6405  17.6405  20.8482
    20.8482  31.1157  31.1157  31.1157

          k = 0.0000 0.0000 0.7000 (   659 PWs)   bands (ev):

   -65.8084 -32.5078 -32.4249 -32.4249  16.4317  16.6125  20.4579  20.4579
    21.2473  25.7280  35.8221  35.8221

          k = 0.0000-0.1000 0.8000 (   657 PWs)   bands (ev):

   -65.7870 -32.5630 -32.4709 -32.4340  16.1656  16.2359  20.6768  20.9237
    21.8606  28.6052  32.5427  34.3587

          k =-0.1000 0.9000-0.1000 (   664 PWs)   bands (ev):

   -65.7768 -32.5381 -32.5381 -32.4434  16.0063  16.0063  20.8074  21.7196
    21.7196  31.3915  31.3915  32.3657

          k = 0.0000 0.0000 0.9000 (   678 PWs)   bands (ev):

   -65.7672 -32.5306 -32.5190 -32.5190  15.7815  15.7894  21.6849  21.6849
    21.8324  30.9109  32.7410  32.7410

 ------ SPIN DOWN ----------


          k = 0.0000 0.0000 0.1000 (   651 PWs)   bands (ev):

   -63.8464 -29.9344 -29.9206 -29.9206  12.5523  20.3617  20.3617  20.4464
    22.4622  22.6670  46.7213  47.7525

          k = 0.0000-0.1000 0.2000 (   653 PWs)   bands (ev):

   -63.8172 -30.0689 -29.9655 -29.9249  13.4506  20.0893  20.2854  20.9957
    22.1284  22.7583  43.9381  46.4643

          k = 0.0000-0.2000 0.3000 (   651 PWs)   bands (ev):

   -63.7698 -30.2900 -30.0373 -29.9246  14.9861  19.6318  20.0444  22.0048
    22.0421  22.8584  39.6503  44.2199

          k = 0.0000-0.3000 0.4000 (   658 PWs)   bands (ev):

   -63.7221 -30.5078 -30.1089 -29.9247  16.3533  19.1991  20.2923  22.2826
    23.0230  23.1458  35.2329  42.3304

          k = 0.0000-0.4000 0.5000 (   656 PWs)   bands (ev):

   -63.6925 -30.6401 -30.1524 -29.9246  16.7490  18.9430  21.3031  22.4392
    23.5038  23.9421  31.9374  41.2697

          k =-0.1000 0.1000 0.1000 (   652 PWs)   bands (ev):

   -63.8316 -30.0266 -29.9214 -29.9214  13.0099  20.1775  20.1775  20.8881
    22.5158  22.5158  45.7167  45.7167

          k =-0.1000-0.1000 0.3000 (   660 PWs)   bands (ev):

   -63.7795 -30.2202 -30.0167 -29.9563  14.6638  19.9509  19.9830  21.7350
    21.7785  22.9539  41.6646  43.1787

          k =-0.1000-0.2000 0.4000 (   655 PWs)   bands (ev):

   -63.7326 -30.4118 -30.0999 -29.9651  16.2049  19.4663  19.7843  21.8693
    22.7880  23.3035  37.6717  40.7519

          k =-0.1000-0.3000 0.5000 (   657 PWs)   bands (ev):

   -63.6945 -30.5653 -30.1725 -29.9663  17.0719  19.1713  20.0858  22.1930
    23.2231  24.6071  33.5335  39.3924

          k =-0.1000 0.6000-0.4000 (   652 PWs)   bands (ev):

   -63.6799 -30.6231 -30.2003 -29.9662  17.1708  19.0784  20.4642  22.2760
    23.5063  25.6440  31.3984  38.8884

          k =-0.2000 0.2000 0.1000 (   653 PWs)   bands (ev):

   -63.7928 -30.2080 -29.9814 -29.9234  14.2751  19.7426  19.9306  21.7778
    22.3126  22.6341  41.8566  43.9449

          k =-0.2000-0.2000 0.5000 (   651 PWs)   bands (ev):

   -63.6952 -30.5055 -30.2036 -29.9900  17.4324  18.9900  19.7155  22.0168
    23.0391  24.9480  35.7510  36.5804

          k =-0.2000 0.7000-0.4000 (   660 PWs)   bands (ev):

   -63.6721 -30.5437 -30.2960 -29.9975  17.9129  18.9880  19.5943  22.3262
    23.1257  27.2035  32.2353  35.3096

          k =-0.3000 0.3000 0.1000 (   647 PWs)   bands (ev):

   -63.7445 -30.4171 -30.0660 -29.9258  15.8828  19.2668  19.8095  22.3505
    22.7696  22.9795  37.3978  42.1005

          k =-0.3000 0.2000 0.2000 (   644 PWs)   bands (ev):

   -63.7530 -30.3726 -30.0283 -29.9578  15.7248  19.3979  19.4159  22.3249
    22.7559  23.0268  39.5365  40.5168

          k =-0.3000 0.7000-0.3000 (   652 PWs)   bands (ev):

   -63.6635 -30.4409 -30.4409 -30.0051  18.5664  18.9672  18.9672  22.7630
    22.7630  30.2876  30.2876  33.1669

          k =-0.4000 0.4000 0.1000 (   655 PWs)   bands (ev):

   -63.7052 -30.5820 -30.1367 -29.9283  16.7573  18.9153  20.6779  22.5082
    22.8882  24.2050  33.3496  40.7378

          k =-0.4000 0.3000 0.2000 (   654 PWs)   bands (ev):

   -63.7131 -30.5056 -30.1262 -29.9733  17.0880  18.9808  19.4678  22.4389
    22.9085  24.5697  35.5590  38.5770

          k = 0.5000-0.5000 0.1000 (   662 PWs)   bands (ev):

   -63.6902 -30.6447 -30.1636 -29.9293  16.8625  18.7871  21.5346  22.5678
    22.9378  24.8949  31.3892  40.2388

          k = 0.5000-0.6000 0.2000 (   656 PWs)   bands (ev):

   -63.6883 -30.5753 -30.2014 -29.9790  17.4150  18.7830  20.2583  22.5940
    22.9918  26.2029  32.0517  37.6572

          k = 0.5000-0.7000 0.3000 (   660 PWs)   bands (ev):

   -63.6877 -30.5168 -30.2399 -30.0074  17.9646  18.8137  19.3969  22.5837
    22.9734  26.7432  33.7772  34.9076

          k = 0.4000-0.6000 0.3000 (   662 PWs)   bands (ev):

   -63.6779 -30.4866 -30.3213 -30.0171  18.0984  18.8428  19.5156  22.7213
    22.9385  28.7380  31.3174  34.1184

          k = 0.0000 0.0000 0.3000 (   655 PWs)   bands (ev):

   -63.7896 -30.1052 -30.0117 -30.0117  14.2901  20.3995  20.3995  21.0166
    21.3748  23.0525  43.2974  45.7431

          k = 0.0000-0.1000 0.4000 (   652 PWs)   bands (ev):

   -63.7447 -30.2816 -30.0858 -30.0309  15.7021  20.0700  20.1755  21.1885
    21.8800  23.3223  40.2292  43.3250

          k = 0.0000-0.2000 0.5000 (   655 PWs)   bands (ev):

   -63.6995 -30.4788 -30.1596 -30.0264  16.9665  19.5856  19.8217  21.7014
    23.0375  23.9537  35.7377  41.8535

          k = 0.0000-0.3000 0.6000 (   654 PWs)   bands (ev):

   -63.6715 -30.6004 -30.2047 -30.0220  17.3230  19.6023  19.7616  21.8794
    23.8666  25.4715  32.1022  40.6481

          k =-0.1000-0.1000 0.5000 (   653 PWs)   bands (ev):

   -63.7015 -30.4068 -30.1748 -30.0684  16.9635  19.3715  20.3061  21.3098
    22.6508  24.0034  38.2530  38.9591

          k =-0.1000-0.2000 0.6000 (   658 PWs)   bands (ev):

   -63.6664 -30.5228 -30.2584 -30.0706  17.7526  18.9375  20.0498  21.7979
    23.3014  25.8082  34.1330  37.2742

          k =-0.1000 0.7000-0.3000 (   654 PWs)   bands (ev):

   -63.6529 -30.5678 -30.2910 -30.0689  17.8179  19.1009  19.7985  21.9414
    23.6413  27.6004  31.4901  36.7214

          k =-0.2000 0.8000-0.3000 (   661 PWs)   bands (ev):

   -63.6458 -30.5039 -30.3849 -30.0785  18.4376  18.4818  19.6613  22.4513
    23.1695  28.7067  32.4477  33.7915

          k =-0.3000 0.3000 0.3000 (   649 PWs)   bands (ev):

   -63.7202 -30.4791 -30.0439 -30.0439  17.2034  18.9602  18.9602  22.7073
    22.7073  24.6231  37.8063  37.8063

          k = 0.6000-0.6000 0.3000 (   661 PWs)   bands (ev):

   -63.6936 -30.5122 -30.1678 -30.0566  18.0429  18.7102  19.2316  22.7679
    22.9097  26.5644  33.9995  36.6786

          k = 0.5000-0.5000 0.3000 (   654 PWs)   bands (ev):

   -63.6834 -30.5036 -30.2352 -30.0612  18.0073  18.6314  19.7852  22.8129
    22.9704  28.1619  31.5115  36.2865

          k = 0.5000-0.6000 0.4000 (   660 PWs)   bands (ev):

   -63.6816 -30.4313 -30.2691 -30.1181  18.4204  18.8012  19.1554  22.8994
    22.9645  29.1385  32.5055  33.8442

          k = 0.0000 0.0000 0.5000 (   639 PWs)   bands (ev):

   -63.7038 -30.3037 -30.1632 -30.1632  16.7783  19.6844  20.8708  20.8708
    21.9709  23.8909  41.1090  41.1090

          k = 0.0000-0.1000 0.6000 (   655 PWs)   bands (ev):

   -63.6628 -30.4347 -30.2408 -30.1865  17.6039  18.8296  20.9222  21.4289
    22.8909  25.1253  36.6495  38.9319

          k = 0.0000-0.2000 0.7000 (   656 PWs)   bands (ev):

   -63.6374 -30.5361 -30.2880 -30.1784  17.8166  18.5007  20.8074  21.6772
    23.7458  27.5004  32.5588  37.5902

          k =-0.1000-0.1000 0.7000 (   664 PWs)   bands (ev):

   -63.6315 -30.4815 -30.3394 -30.2114  17.8947  18.1933  21.0105  22.1514
    23.3392  27.3535  34.8676  35.3179

          k =-0.1000 0.8000-0.2000 (   661 PWs)   bands (ev):

   -63.6195 -30.4993 -30.3877 -30.2088  17.8738  18.0501  20.9104  22.5459
    23.5565  29.9111  31.8105  34.5007

          k = 0.5000-0.5000 0.5000 (   664 PWs)   bands (ev):

   -63.6793 -30.2801 -30.2801 -30.2801  18.8217  18.8217  18.8217  22.9906
    22.9906  32.0670  32.0670  32.0670

          k = 0.0000 0.0000 0.7000 (   659 PWs)   bands (ev):

   -63.6260 -30.4133 -30.3216 -30.3216  17.6684  18.1030  22.0273  22.0273
    22.9655  26.8031  36.4954  36.4954

          k = 0.0000-0.1000 0.8000 (   657 PWs)   bands (ev):

   -63.6032 -30.4714 -30.3711 -30.3318  17.5486  17.6341  22.2857  22.5379
    23.6284  29.4632  33.2836  34.9641

          k =-0.1000 0.9000-0.1000 (   664 PWs)   bands (ev):

   -63.5924 -30.4438 -30.4438 -30.3417  17.4010  17.4010  22.4161  23.4573
    23.4573  32.1105  32.1105  32.9835

          k = 0.0000 0.0000 0.9000 (   678 PWs)   bands (ev):

   -63.5820 -30.4357 -30.4227 -30.4227  17.1714  17.1822  23.4166  23.4166
    23.6008  31.5232  33.2462  33.2462

     the Fermi energy is    21.4776 ev

!    total energy              =    -254.23541055 Ry
     estimated scf accuracy    <          8.1E-09 Ry
     smearing contrib. (-TS)   =       0.00007593 Ry
     internal energy E=F+TS    =    -254.23548648 Ry

     The total energy is F=E-TS. E is the sum of the following terms:
     one-electron contribution =     -97.43462658 Ry
     hartree contribution      =      60.41980573 Ry
     xc contribution           =     -34.54541796 Ry
     ewald contribution        =    -182.67524766 Ry

     total magnetization       =     1.86 Bohr mag/cell
     absolute magnetization    =     1.90 Bohr mag/cell

     convergence has been achieved in  10 iterations

     Writing output data file ./tempdir/fe.save/

     init_run     :      0.65s CPU      0.65s WALL (       1 calls)
     electrons    :      5.74s CPU      5.94s WALL (       1 calls)

     Called by init_run:
     wfcinit      :      0.16s CPU      0.16s WALL (       1 calls)
     potinit      :      0.03s CPU      0.03s WALL (       1 calls)
     hinit0       :      0.40s CPU      0.40s WALL (       1 calls)

     Called by electrons:
     c_bands      :      3.50s CPU      3.51s WALL (      10 calls)
     sum_band     :      1.52s CPU      1.63s WALL (      10 calls)
     v_of_rho     :      0.17s CPU      0.17s WALL (      11 calls)
     newd         :      0.51s CPU      0.59s WALL (      11 calls)
     mix_rho      :      0.06s CPU      0.06s WALL (      10 calls)

     Called by c_bands:
     init_us_2    :      0.10s CPU      0.10s WALL (     924 calls)
     cegterg      :      3.01s CPU      3.02s WALL (     440 calls)

     Called by *egterg:
     cdiaghg      :      0.15s CPU      0.15s WALL (    1507 calls)
     h_psi        :      2.68s CPU      2.70s WALL (    1551 calls)
     s_psi        :      0.04s CPU      0.04s WALL (    1551 calls)
     g_psi        :      0.02s CPU      0.02s WALL (    1067 calls)

     Called by h_psi:
     h_psi:calbec :      0.06s CPU      0.06s WALL (    1551 calls)
     vloc_psi     :      2.56s CPU      2.58s WALL (    1551 calls)
     add_vuspsi   :      0.05s CPU      0.05s WALL (    1551 calls)

     General routines
     calbec       :      0.08s CPU      0.08s WALL (    1991 calls)
     fft          :      0.14s CPU      0.14s WALL (     115 calls)
     ffts         :      0.01s CPU      0.01s WALL (      42 calls)
     fftw         :      2.76s CPU      2.77s WALL (   31320 calls)
     interpolate  :      0.04s CPU      0.04s WALL (      22 calls)

     Parallel routines

     PWSCF        :      6.46s CPU      6.68s WALL


   This run was terminated on:  22: 1: 8  18Apr2021            

=------------------------------------------------------------------------------=
   JOB DONE.
=------------------------------------------------------------------------------=
