### Running on host: assam

     Program BANDS v.6.4.1 starts on 14Sep2019 at 14: 0:36 

     This program is part of the open-source Quantum ESPRESSO suite
     for quantum simulation of materials; please cite
         "P. Giannozzi et al., J. Phys.:Condens. Matter 21 395502 (2009);
         "P. Giannozzi et al., J. Phys.:Condens. Matter 29 465901 (2017);
          URL http://www.quantum-espresso.org", 
     in publications or presentations arising from this work. More details at
     http://www.quantum-espresso.org/quote

     Parallel version (MPI), running on     2 processors

     MPI processes distributed on     1 nodes
     R & G space division:  proc/nbgrp/npool/nimage =       2

     Reading data from directory:
     /tmp/silicon.save/

     IMPORTANT: XC functional enforced from input :
     Exchange-correlation      = PZ ( 1  1  0  0 0 0)
     Any further DFT definition will be discarded
     Please, verify this is what you really want


     Parallelization info
     --------------------
     sticks:   dense  smooth     PW     G-vecs:    dense   smooth      PW
     Min          81      81     30                  728      728     165
     Max          82      82     31                  731      731     166
     Sum         163     163     61                 1459     1459     331

     high-symmetry point: -0.5000 0.5000 0.5000   x coordinate   0.0000
     high-symmetry point:  0.0000 0.0000 0.0000   x coordinate   0.8660
     high-symmetry point:  0.0000 0.0000 1.0000   x coordinate   1.8660
     high-symmetry point:  0.0000 0.5000 1.0000   x coordinate   2.3660
     high-symmetry point:  0.0000 0.7500 0.7500   x coordinate   2.7196
     high-symmetry point: -0.5000 0.5000 0.5000   x coordinate   3.3320

     Plottable bands (eV) written to file Si.bands.dat.gnu
     Bands written to file Si.bands.dat

 **************************************************************************

                    xk=(  -0.50000,   0.50000,   0.50000  )

     zone border point and non-symmorphic group 
     symmetry decomposition not available

 **************************************************************************

 **************************************************************************

                    xk=(  -0.45000,   0.45000,   0.45000  )

     point group C_3v (3m)  
     there are  3 classes
     the character table:

       E     2C3   3s_v 
A_1    1.00  1.00  1.00
A_2    1.00  1.00 -1.00
E      2.00 -1.00  0.00

     the symmetry operations in each class and the name of the first element:

     E        1
                                                                 
     2C3      2    3
                                                                 
     3s_v     4    5    6
                                                                 

     Band symmetry, C_3v (3m)   point group:

     e(  1 -  1) =     -3.43217  eV     1   --> A_1  L_1       
     e(  2 -  2) =     -0.57167  eV     1   --> A_1  L_1       
     e(  3 -  4) =      5.06800  eV     2   --> E    L_3       
     e(  5 -  5) =      7.92205  eV     1   --> A_1  L_1       
     e(  6 -  7) =      9.70427  eV     2   --> E    L_3       
     e(  8 -  8) =     13.91419  eV     1   --> A_1  L_1       

 **************************************************************************

 **************************************************************************

                    xk=(  -0.40000,   0.40000,   0.40000  )

     Band symmetry, C_3v (3m)   point group:

     e(  1 -  1) =     -3.78596  eV     1   --> A_1  L_1       
     e(  2 -  2) =     -0.04192  eV     1   --> A_1  L_1       
     e(  3 -  4) =      5.12386  eV     2   --> E    L_3       
     e(  5 -  5) =      7.97874  eV     1   --> A_1  L_1       
     e(  6 -  7) =      9.76789  eV     2   --> E    L_3       
     e(  8 -  8) =     13.99551  eV     1   --> A_1  L_1       

 **************************************************************************

 **************************************************************************

                    xk=(  -0.35000,   0.35000,   0.35000  )

     Band symmetry, C_3v (3m)   point group:

     e(  1 -  1) =     -4.17784  eV     1   --> A_1  L_1       
     e(  2 -  2) =      0.65810  eV     1   --> A_1  L_1       
     e(  3 -  4) =      5.21596  eV     2   --> E    L_3       
     e(  5 -  5) =      8.07614  eV     1   --> A_1  L_1       
     e(  6 -  7) =      9.83803  eV     2   --> E    L_3       
     e(  8 -  8) =     14.07593  eV     1   --> A_1  L_1       

 **************************************************************************

 **************************************************************************

                    xk=(  -0.30000,   0.30000,   0.30000  )

     Band symmetry, C_3v (3m)   point group:

     e(  1 -  1) =     -4.56385  eV     1   --> A_1  L_1       
     e(  2 -  2) =      1.46299  eV     1   --> A_1  L_1       
     e(  3 -  4) =      5.34311  eV     2   --> E    L_3       
     e(  5 -  5) =      8.19318  eV     1   --> A_1  L_1       
     e(  6 -  7) =      9.88256  eV     2   --> E    L_3       
     e(  8 -  8) =     13.88802  eV     1   --> A_1  L_1       

 **************************************************************************

 **************************************************************************

                    xk=(  -0.25000,   0.25000,   0.25000  )

     Band symmetry, C_3v (3m)   point group:

     e(  1 -  1) =     -4.89556  eV     1   --> A_1  L_1       
     e(  2 -  2) =      2.35223  eV     1   --> A_1  L_1       
     e(  3 -  4) =      5.50597  eV     2   --> E    L_3       
     e(  5 -  5) =      8.35943  eV     1   --> A_1  L_1       
     e(  6 -  7) =      9.85582  eV     2   --> E    L_3       
     e(  8 -  8) =     13.23682  eV     1   --> A_1  L_1       

 **************************************************************************

 **************************************************************************

                    xk=(  -0.20000,   0.20000,   0.20000  )

     Band symmetry, C_3v (3m)   point group:

     e(  1 -  1) =     -5.18497  eV     1   --> A_1  L_1       
     e(  2 -  2) =      3.28378  eV     1   --> A_1  L_1       
     e(  3 -  4) =      5.69314  eV     2   --> E    L_3       
     e(  5 -  5) =      8.57595  eV     1   --> A_1  L_1       
     e(  6 -  7) =      9.70803  eV     2   --> E    L_3       
     e(  8 -  8) =     12.40785  eV     1   --> A_1  L_1       

 **************************************************************************

 **************************************************************************

                    xk=(  -0.15000,   0.15000,   0.15000  )

     Band symmetry, C_3v (3m)   point group:

     e(  1 -  1) =     -5.40432  eV     1   --> A_1  L_1       
     e(  2 -  2) =      4.23957  eV     1   --> A_1  L_1       
     e(  3 -  4) =      5.89576  eV     2   --> E    L_3       
     e(  5 -  5) =      8.79777  eV     1   --> A_1  L_1       
     e(  6 -  7) =      9.46048  eV     2   --> E    L_3       
     e(  8 -  8) =     11.54528  eV     1   --> A_1  L_1       

 **************************************************************************

 **************************************************************************

                    xk=(  -0.10000,   0.10000,   0.10000  )

     Band symmetry, C_3v (3m)   point group:

     e(  1 -  1) =     -5.56924  eV     1   --> A_1  L_1       
     e(  2 -  2) =      5.16285  eV     1   --> A_1  L_1       
     e(  3 -  4) =      6.09084  eV     2   --> E    L_3       
     e(  5 -  5) =      8.93574  eV     1   --> A_1  L_1       
     e(  6 -  7) =      9.18304  eV     2   --> E    L_3       
     e(  8 -  8) =     10.71848  eV     1   --> A_1  L_1       

 **************************************************************************

 **************************************************************************

                    xk=(  -0.05000,   0.05000,   0.05000  )

     Band symmetry, C_3v (3m)   point group:

     e(  1 -  1) =     -5.66859  eV     1   --> A_1  L_1       
     e(  2 -  2) =      5.94710  eV     1   --> A_1  L_1       
     e(  3 -  4) =      6.24111  eV     2   --> E    L_3       
     e(  5 -  5) =      8.95229  eV     1   --> A_1  L_1       
     e(  6 -  7) =      8.96383  eV     2   --> E    L_3       
     e(  8 -  8) =     10.08482  eV     1   --> A_1  L_1       

 **************************************************************************

 **************************************************************************

                    xk=(   0.00000,   0.00000,   0.00000  )

     point group O_h (m-3m) 
     there are 10 classes
     the character table:

       E     8C3   3C2   6C4   6C2'  i     8S6   3s_h  6S4   6s_d 
A_1g   1.00  1.00  1.00  1.00  1.00  1.00  1.00  1.00  1.00  1.00
A_2g   1.00  1.00  1.00 -1.00 -1.00  1.00  1.00  1.00 -1.00 -1.00
E_g    2.00 -1.00  2.00  0.00  0.00  2.00 -1.00  2.00  0.00  0.00
T_1g   3.00  0.00 -1.00  1.00 -1.00  3.00  0.00 -1.00  1.00 -1.00
T_2g   3.00  0.00 -1.00 -1.00  1.00  3.00  0.00 -1.00 -1.00  1.00
A_1u   1.00  1.00  1.00  1.00  1.00 -1.00 -1.00 -1.00 -1.00 -1.00
A_2u   1.00  1.00  1.00 -1.00 -1.00 -1.00 -1.00 -1.00  1.00  1.00
E_u    2.00 -1.00  2.00  0.00  0.00 -2.00  1.00 -2.00  0.00  0.00
T_1u   3.00  0.00 -1.00  1.00 -1.00 -3.00  0.00  1.00 -1.00  1.00
T_2u   3.00  0.00 -1.00 -1.00  1.00 -3.00  0.00  1.00  1.00 -1.00

     the symmetry operations in each class and the name of the first element:

     E        1
                                                                 
     8C3     17   19   20   18   24   21   22   23
                                                                 
     3C2      2    4    3
                                                                 
     6C4      7    8   15   16   12   11
                                                                 
     6C2'     5    6   14   13   10    9
                                                                 
     i       25
                                                                 
     8S6     41   43   44   42   48   45   46   47
                                                                 
     3s_h    26   28   27
                                                                 
     6S4     31   32   39   40   36   35
                                                                 
     6s_d    29   30   38   37   34   33
                                                                 

     Band symmetry, O_h (m-3m)  point group:

     e(  1 -  1) =     -5.69285  eV     1   --> A_1g G_1   G_1+
     e(  2 -  4) =      6.30256  eV     3   --> T_2g G_25' G_5+
     e(  5 -  7) =      8.87967  eV     3   --> T_1u G_15  G_4-
     e(  8 -  8) =      9.86681  eV     1   --> A_2u G_2'  G_2-

 **************************************************************************

 **************************************************************************

                    xk=(   0.00000,   0.00000,   0.09091  )

     point group C_4v (4mm) 
     there are  5 classes
     the character table:

       E     2C4   C2    2s_v  2s_d 
A_1    1.00  1.00  1.00  1.00  1.00
A_2    1.00  1.00  1.00 -1.00 -1.00
B_1    1.00 -1.00  1.00  1.00 -1.00
B_2    1.00 -1.00  1.00 -1.00  1.00
E      2.00  0.00 -2.00  0.00  0.00

     the symmetry operations in each class and the name of the first element:

     E        1
                                                                 
     2C4      3    4
                                                                 
     C2       2
                                                                 
     2s_v     5    6
                                                                 
     2s_d     7    8
                                                                 

     Band symmetry, C_4v (4mm)  point group:

     e(  1 -  1) =     -5.66814  eV     1   --> A_1  G_1 D_1   
     e(  2 -  2) =      6.08369  eV     1   --> B_2  G_4 D_2'  
     e(  3 -  4) =      6.14154  eV     2   --> E    G_5 D_5   
     e(  5 -  5) =      8.78797  eV     1   --> A_1  G_1 D_1   
     e(  6 -  7) =      9.07964  eV     2   --> E    G_5 D_5   
     e(  8 -  8) =     10.07572  eV     1   --> B_2  G_4 D_2'  

 **************************************************************************

 **************************************************************************

                    xk=(   0.00000,   0.00000,   0.18182  )

     Band symmetry, C_4v (4mm)  point group:

     e(  1 -  1) =     -5.55855  eV     1   --> A_1  G_1 D_1   
     e(  2 -  2) =      5.54297  eV     1   --> B_2  G_4 D_2'  
     e(  3 -  4) =      5.77781  eV     2   --> E    G_5 D_5   
     e(  5 -  5) =      8.54740  eV     1   --> A_1  G_1 D_1   
     e(  6 -  7) =      9.57916  eV     2   --> E    G_5 D_5   
     e(  8 -  8) =     10.53812  eV     1   --> B_2  G_4 D_2'  

 **************************************************************************

 **************************************************************************

                    xk=(   0.00000,   0.00000,   0.27273  )

     Band symmetry, C_4v (4mm)  point group:

     e(  1 -  1) =     -5.37588  eV     1   --> A_1  G_1 D_1   
     e(  2 -  2) =      4.84635  eV     1   --> B_2  G_4 D_2'  
     e(  3 -  4) =      5.34437  eV     2   --> E    G_5 D_5   
     e(  5 -  5) =      8.22608  eV     1   --> A_1  G_1 D_1   
     e(  6 -  7) =     10.23663  eV     2   --> E    G_5 D_5   
     e(  8 -  8) =     10.83411  eV     1   --> B_2  G_4 D_2'  

 **************************************************************************

 **************************************************************************

                    xk=(   0.00000,   0.00000,   0.36364  )

     Band symmetry, C_4v (4mm)  point group:

     e(  1 -  1) =     -5.13286  eV     1   --> A_1  G_1 D_1   
     e(  2 -  2) =      4.06912  eV     1   --> B_2  G_4 D_2'  
     e(  3 -  4) =      4.91067  eV     2   --> E    G_5 D_5   
     e(  5 -  5) =      7.87070  eV     1   --> A_1  G_1 D_1   
     e(  6 -  6) =     10.47223  eV     1   --> B_2  G_4 D_2'  
     e(  7 -  8) =     10.96074  eV     2   --> E    G_5 D_5   

 **************************************************************************

 **************************************************************************

                    xk=(   0.00000,   0.00000,   0.45455  )

     Band symmetry, C_4v (4mm)  point group:

     e(  1 -  1) =     -4.80066  eV     1   --> A_1  G_1 D_1   
     e(  2 -  2) =      3.26988  eV     1   --> B_2  G_4 D_2'  
     e(  3 -  4) =      4.51312  eV     2   --> E    G_5 D_5   
     e(  5 -  5) =      7.54900  eV     1   --> A_1  G_1 D_1   
     e(  6 -  6) =      9.79770  eV     1   --> B_2  G_4 D_2'  
     e(  7 -  8) =     11.75067  eV     2   --> E    G_5 D_5   

 **************************************************************************

 **************************************************************************

                    xk=(   0.00000,   0.00000,   0.54545  )

     Band symmetry, C_4v (4mm)  point group:

     e(  1 -  1) =     -4.40723  eV     1   --> A_1  G_1 D_1   
     e(  2 -  2) =      2.45734  eV     1   --> B_2  G_4 D_2'  
     e(  3 -  4) =      4.16407  eV     2   --> E    G_5 D_5   
     e(  5 -  5) =      7.27072  eV     1   --> A_1  G_1 D_1   
     e(  6 -  6) =      9.08915  eV     1   --> B_2  G_4 D_2'  
     e(  7 -  8) =     12.56897  eV     2   --> E    G_5 D_5   

 **************************************************************************

 **************************************************************************

                    xk=(   0.00000,   0.00000,   0.63636  )

     Band symmetry, C_4v (4mm)  point group:

     e(  1 -  1) =     -3.96011  eV     1   --> A_1  G_1 D_1   
     e(  2 -  2) =      1.59195  eV     1   --> B_2  G_4 D_2'  
     e(  3 -  4) =      3.87036  eV     2   --> E    G_5 D_5   
     e(  5 -  5) =      7.04044  eV     1   --> A_1  G_1 D_1   
     e(  6 -  6) =      8.44760  eV     1   --> B_2  G_4 D_2'  
     e(  7 -  8) =     13.35937  eV     2   --> E    G_5 D_5   

 **************************************************************************

 **************************************************************************

                    xk=(   0.00000,   0.00000,   0.72727  )

     Band symmetry, C_4v (4mm)  point group:

     e(  1 -  1) =     -3.42906  eV     1   --> A_1  G_1 D_1   
     e(  2 -  2) =      0.78119  eV     1   --> B_2  G_4 D_2'  
     e(  3 -  4) =      3.64182  eV     2   --> E    G_5 D_5   
     e(  5 -  5) =      6.89605  eV     1   --> A_1  G_1 D_1   
     e(  6 -  6) =      7.91240  eV     1   --> B_2  G_4 D_2'  
     e(  7 -  8) =     14.21481  eV     2   --> E    G_5 D_5   

 **************************************************************************

 **************************************************************************

                    xk=(   0.00000,   0.00000,   0.81818  )

     Band symmetry, C_4v (4mm)  point group:

     e(  1 -  1) =     -2.85383  eV     1   --> A_1  G_1 D_1   
     e(  2 -  2) =     -0.01338  eV     1   --> B_2  G_4 D_2'  
     e(  3 -  4) =      3.47468  eV     2   --> E    G_5 D_5   
     e(  5 -  5) =      6.80546  eV     1   --> A_1  G_1 D_1   
     e(  6 -  6) =      7.48494  eV     1   --> B_2  G_4 D_2'  
     e(  7 -  8) =     15.07953  eV     2   --> E    G_5 D_5   

 **************************************************************************

 **************************************************************************

                    xk=(   0.00000,   0.00000,   0.90909  )

     Band symmetry, C_4v (4mm)  point group:

     e(  1 -  1) =     -2.20145  eV     1   --> A_1  G_1 D_1   
     e(  2 -  2) =     -0.78105  eV     1   --> B_2  G_4 D_2'  
     e(  3 -  4) =      3.37520  eV     2   --> E    G_5 D_5   
     e(  5 -  5) =      6.83706  eV     1   --> A_1  G_1 D_1   
     e(  6 -  6) =      7.16633  eV     1   --> B_2  G_4 D_2'  
     e(  7 -  8) =     15.92883  eV     2   --> E    G_5 D_5   

 **************************************************************************

 **************************************************************************

                    xk=(   0.00000,   0.00000,   1.00000  )

     zone border point and non-symmorphic group 
     symmetry decomposition not available

 **************************************************************************

 **************************************************************************

                    xk=(  -0.00000,   0.08333,   1.00000  )

     zone border point and non-symmorphic group 
     symmetry decomposition not available

 **************************************************************************

 **************************************************************************

                    xk=(   0.00000,   0.16667,   1.00000  )

     zone border point and non-symmorphic group 
     symmetry decomposition not available

 **************************************************************************

 **************************************************************************

                    xk=(   0.00000,   0.25000,   1.00000  )

     zone border point and non-symmorphic group 
     symmetry decomposition not available

 **************************************************************************

 **************************************************************************

                    xk=(  -0.00000,   0.33333,   1.00000  )

     zone border point and non-symmorphic group 
     symmetry decomposition not available

 **************************************************************************

 **************************************************************************

                    xk=(   0.00000,   0.41667,   1.00000  )

     zone border point and non-symmorphic group 
     symmetry decomposition not available

 **************************************************************************

 **************************************************************************

                    xk=(   0.00000,   0.50000,   1.00000  )

     zone border point and non-symmorphic group 
     symmetry decomposition not available

 **************************************************************************

 **************************************************************************

                    xk=(   0.00000,   0.56250,   0.93750  )

     point group C_s (m)    
     there are  2 classes
     the character table:

       E     s    
A'     1.00  1.00
A''    1.00 -1.00

     the symmetry operations in each class and the name of the first element:

     E        1
                                                                 
     s        2
                                                                 

     Band symmetry, C_s (m)     point group:

     e(  1 -  1) =     -1.58821  eV     1   --> A'             
     e(  2 -  2) =     -1.10221  eV     1   --> A''            
     e(  3 -  3) =      2.09652  eV     1   --> A'             
     e(  4 -  4) =      2.61944  eV     1   --> A''            
     e(  5 -  5) =      9.65095  eV     1   --> A''            
     e(  6 -  6) =     10.61786  eV     1   --> A'             
     e(  7 -  7) =     11.82705  eV     1   --> A'             
     e(  8 -  8) =     11.89726  eV     1   --> A''            

 **************************************************************************

 **************************************************************************

                    xk=(   0.00000,   0.62500,   0.87500  )

     Band symmetry, C_s (m)     point group:

     e(  1 -  1) =     -1.76696  eV     1   --> A'             
     e(  2 -  2) =     -0.98146  eV     1   --> A''            
     e(  3 -  3) =      1.95132  eV     1   --> A'             
     e(  4 -  4) =      3.09129  eV     1   --> A''            
     e(  5 -  5) =      8.59760  eV     1   --> A''            
     e(  6 -  6) =     10.53420  eV     1   --> A'             
     e(  7 -  7) =     12.52770  eV     1   --> A'             
     e(  8 -  8) =     12.79112  eV     1   --> A''            

 **************************************************************************

 **************************************************************************

                    xk=(   0.00000,   0.68750,   0.81250  )

     Band symmetry, C_s (m)     point group:

     e(  1 -  1) =     -1.86895  eV     1   --> A'             
     e(  2 -  2) =     -0.93335  eV     1   --> A''            
     e(  3 -  3) =      1.86233  eV     1   --> A'             
     e(  4 -  4) =      3.56392  eV     1   --> A''            
     e(  5 -  5) =      7.78732  eV     1   --> A''            
     e(  6 -  6) =     10.46726  eV     1   --> A'             
     e(  7 -  7) =     13.28397  eV     1   --> A'             
     e(  8 -  8) =     13.75014  eV     1   --> A''            

 **************************************************************************

 **************************************************************************

                    xk=(   0.00000,   0.75000,   0.75000  )

     point group C_2v (mm2) 
     there are  4 classes
     the character table:

       E     C2    s_v   s_v' 
A_1    1.00  1.00  1.00  1.00
A_2    1.00  1.00 -1.00 -1.00
B_1    1.00 -1.00  1.00 -1.00
B_2    1.00 -1.00 -1.00  1.00

     the symmetry operations in each class and the name of the first element:

     E        1
                                                                 
     C2       2
                                                                 
     s_v      4
                                                                 
     s_v'     3
                                                                 

     Band symmetry, C_2v (mm2)  point group:

     e(  1 -  1) =     -1.89837  eV     1   --> A_1  D_1  S_1  
     e(  2 -  2) =     -0.92116  eV     1   --> B_1  D_3  S_3  
     e(  3 -  3) =      1.83312  eV     1   --> A_1  D_1  S_1  
     e(  4 -  4) =      3.78238  eV     1   --> A_2  D_2  S_2  
     e(  5 -  5) =      7.45817  eV     1   --> B_1  D_3  S_3  
     e(  6 -  6) =     10.44434  eV     1   --> A_1  D_1  S_1  
     e(  7 -  7) =     13.87519  eV     1   --> B_2  D_4  S_4  
     e(  8 -  8) =     14.40038  eV     1   --> A_1  D_1  S_1  

 **************************************************************************

 **************************************************************************

                    xk=(  -0.07143,   0.71429,   0.71429  )

     point group C_s (m)    
     there are  2 classes
     the character table:

       E     s    
A'     1.00  1.00
A''    1.00 -1.00

     the symmetry operations in each class and the name of the first element:

     E        1
                                                                 
     s        2
                                                                 

     Band symmetry, C_s (m)     point group:

     e(  1 -  1) =     -2.17106  eV     1   --> A'             
     e(  2 -  2) =     -0.69067  eV     1   --> A'             
     e(  3 -  3) =      1.83071  eV     1   --> A'             
     e(  4 -  4) =      3.92982  eV     1   --> A''            
     e(  5 -  5) =      7.63477  eV     1   --> A'             
     e(  6 -  6) =     11.20822  eV     1   --> A'             
     e(  7 -  7) =     13.16844  eV     1   --> A''            
     e(  8 -  8) =     13.37908  eV     1   --> A'             

 **************************************************************************

 **************************************************************************

                    xk=(  -0.14286,   0.67857,   0.67857  )

     Band symmetry, C_s (m)     point group:

     e(  1 -  1) =     -2.48675  eV     1   --> A'             
     e(  2 -  2) =     -0.54458  eV     1   --> A'             
     e(  3 -  3) =      2.12390  eV     1   --> A'             
     e(  4 -  4) =      4.12297  eV     1   --> A''            
     e(  5 -  5) =      7.88650  eV     1   --> A'             
     e(  6 -  6) =     11.89406  eV     1   --> A'             
     e(  7 -  7) =     12.29624  eV     1   --> A''            
     e(  8 -  8) =     12.48178  eV     1   --> A'             

 **************************************************************************

 **************************************************************************

                    xk=(  -0.21429,   0.64286,   0.64286  )

     Band symmetry, C_s (m)     point group:

     e(  1 -  1) =     -2.77470  eV     1   --> A'             
     e(  2 -  2) =     -0.54438  eV     1   --> A'             
     e(  3 -  3) =      2.67621  eV     1   --> A'             
     e(  4 -  4) =      4.34873  eV     1   --> A''            
     e(  5 -  5) =      8.17424  eV     1   --> A'             
     e(  6 -  6) =     11.21551  eV     1   --> A'             
     e(  7 -  7) =     11.48670  eV     1   --> A''            
     e(  8 -  8) =     13.04225  eV     1   --> A'             

 **************************************************************************

 **************************************************************************

                    xk=(  -0.28571,   0.60714,   0.60714  )

     Band symmetry, C_s (m)     point group:

     e(  1 -  1) =     -3.00765  eV     1   --> A'             
     e(  2 -  2) =     -0.61493  eV     1   --> A'             
     e(  3 -  3) =      3.37504  eV     1   --> A'             
     e(  4 -  4) =      4.59052  eV     1   --> A''            
     e(  5 -  5) =      8.46124  eV     1   --> A'             
     e(  6 -  6) =     10.32237  eV     1   --> A'             
     e(  7 -  7) =     10.76843  eV     1   --> A''            
     e(  8 -  8) =     13.89950  eV     1   --> A'             

 **************************************************************************

 **************************************************************************

                    xk=(  -0.35714,   0.57143,   0.57143  )

     Band symmetry, C_s (m)     point group:

     e(  1 -  1) =     -3.16874  eV     1   --> A'             
     e(  2 -  2) =     -0.69492  eV     1   --> A'             
     e(  3 -  3) =      4.11351  eV     1   --> A'             
     e(  4 -  4) =      4.81718  eV     1   --> A''            
     e(  5 -  5) =      8.52950  eV     1   --> A'             
     e(  6 -  6) =      9.71156  eV     1   --> A'             
     e(  7 -  7) =     10.20041  eV     1   --> A''            
     e(  8 -  8) =     14.31498  eV     1   --> A'             

 **************************************************************************

 **************************************************************************

                    xk=(  -0.42857,   0.53571,   0.53571  )

     Band symmetry, C_s (m)     point group:

     e(  1 -  1) =     -3.25436  eV     1   --> A'             
     e(  2 -  2) =     -0.75839  eV     1   --> A'             
     e(  3 -  3) =      4.75946  eV     1   --> A'             
     e(  4 -  4) =      4.98607  eV     1   --> A''            
     e(  5 -  5) =      8.15602  eV     1   --> A'             
     e(  6 -  6) =      9.63149  eV     1   --> A'             
     e(  7 -  7) =      9.81629  eV     1   --> A''            
     e(  8 -  8) =     14.04026  eV     1   --> A'             

 **************************************************************************

 **************************************************************************

                    xk=(  -0.50000,   0.50000,   0.50000  )

     zone border point and non-symmorphic group 
     symmetry decomposition not available

 **************************************************************************

     BANDS        :      0.24s CPU      0.28s WALL


   This run was terminated on:  14: 0:36  14Sep2019            

=------------------------------------------------------------------------------=
   JOB DONE.
=------------------------------------------------------------------------------=
