### Running on host: assam

     Program PWSCF v.6.4.1 starts on 14Sep2019 at 14: 0:34 

     This program is part of the open-source Quantum ESPRESSO suite
     for quantum simulation of materials; please cite
         "P. Giannozzi et al., J. Phys.:Condens. Matter 21 395502 (2009);
         "P. Giannozzi et al., J. Phys.:Condens. Matter 29 465901 (2017);
          URL http://www.quantum-espresso.org", 
     in publications or presentations arising from this work. More details at
     http://www.quantum-espresso.org/quote

     Parallel version (MPI), running on     2 processors

     MPI processes distributed on     1 nodes
     R & G space division:  proc/nbgrp/npool/nimage =       2
     Reading input from pw.Si.bands.in

     Current dimensions of program PWSCF are:
     Max number of different atomic species (ntypx) = 10
     Max number of k-points (npk) =  40000
     Max angular momentum in pseudopotentials (lmaxx) =  3

     Atomic positions and unit cell read from directory:
     /tmp/silicon.save/


     Subspace diagonalization in iterative solution of the eigenvalue problem:
     a serial algorithm will be used


     Parallelization info
     --------------------
     sticks:   dense  smooth     PW     G-vecs:    dense   smooth      PW
     Min          81      81     30                  728      728     165
     Max          82      82     31                  731      731     166
     Sum         163     163     61                 1459     1459     331



     bravais-lattice index     =            2
     lattice parameter (alat)  =      10.2000  a.u.
     unit-cell volume          =     265.3020 (a.u.)^3
     number of atoms/cell      =            2
     number of atomic types    =            1
     number of electrons       =         8.00
     number of Kohn-Sham states=            8
     kinetic-energy cutoff     =      12.0000  Ry
     charge density cutoff     =      48.0000  Ry
     Exchange-correlation      =  SLA  PZ   NOGX NOGC ( 1  1  0  0 0 0)

     celldm(1)=  10.200000  celldm(2)=   0.000000  celldm(3)=   0.000000
     celldm(4)=   0.000000  celldm(5)=   0.000000  celldm(6)=   0.000000

     crystal axes: (cart. coord. in units of alat)
               a(1) = (  -0.500000   0.000000   0.500000 )  
               a(2) = (   0.000000   0.500000   0.500000 )  
               a(3) = (  -0.500000   0.500000   0.000000 )  

     reciprocal axes: (cart. coord. in units 2 pi/alat)
               b(1) = ( -1.000000 -1.000000  1.000000 )  
               b(2) = (  1.000000  1.000000  1.000000 )  
               b(3) = ( -1.000000  1.000000 -1.000000 )  


     PseudoPot. # 1 for Si read from file:
     /home/matic/pw/pseudo/Si.pz-vbc.UPF
     MD5 check sum: 6dfa03ddd5817404712e03e4d12deb78
     Pseudo is Norm-conserving, Zval =  4.0
     Generated by new atomic code, or converted to UPF format
     Using radial grid of  431 points,  2 beta functions with: 
                l(1) =   0
                l(2) =   1

     atomic species   valence    mass     pseudopotential
        Si             4.00    28.08600     Si( 1.00)

     48 Sym. Ops., with inversion, found (24 have fractional translation)



   Cartesian axes

     site n.     atom                  positions (alat units)
         1           Si  tau(   1) = (   0.0000000   0.0000000   0.0000000  )
         2           Si  tau(   2) = (   0.2500000   0.2500000   0.2500000  )

     number of k points=    39
                       cart. coord. in units 2pi/alat
        k(    1) = (  -0.5000000   0.5000000   0.5000000), wk =   0.0512821
        k(    2) = (  -0.4500000   0.4500000   0.4500000), wk =   0.0512821
        k(    3) = (  -0.4000000   0.4000000   0.4000000), wk =   0.0512821
        k(    4) = (  -0.3500000   0.3500000   0.3500000), wk =   0.0512821
        k(    5) = (  -0.3000000   0.3000000   0.3000000), wk =   0.0512821
        k(    6) = (  -0.2500000   0.2500000   0.2500000), wk =   0.0512821
        k(    7) = (  -0.2000000   0.2000000   0.2000000), wk =   0.0512821
        k(    8) = (  -0.1500000   0.1500000   0.1500000), wk =   0.0512821
        k(    9) = (  -0.1000000   0.1000000   0.1000000), wk =   0.0512821
        k(   10) = (  -0.0500000   0.0500000   0.0500000), wk =   0.0512821
        k(   11) = (   0.0000000   0.0000000   0.0000000), wk =   0.0512821
        k(   12) = (   0.0000000   0.0000000   0.0909091), wk =   0.0512821
        k(   13) = (   0.0000000   0.0000000   0.1818182), wk =   0.0512821
        k(   14) = (   0.0000000   0.0000000   0.2727273), wk =   0.0512821
        k(   15) = (   0.0000000   0.0000000   0.3636364), wk =   0.0512821
        k(   16) = (   0.0000000   0.0000000   0.4545455), wk =   0.0512821
        k(   17) = (   0.0000000   0.0000000   0.5454545), wk =   0.0512821
        k(   18) = (   0.0000000   0.0000000   0.6363636), wk =   0.0512821
        k(   19) = (   0.0000000   0.0000000   0.7272727), wk =   0.0512821
        k(   20) = (   0.0000000   0.0000000   0.8181818), wk =   0.0512821
        k(   21) = (   0.0000000   0.0000000   0.9090909), wk =   0.0512821
        k(   22) = (   0.0000000   0.0000000   1.0000000), wk =   0.0512821
        k(   23) = (  -0.0000000   0.0833333   1.0000000), wk =   0.0512821
        k(   24) = (   0.0000000   0.1666667   1.0000000), wk =   0.0512821
        k(   25) = (   0.0000000   0.2500000   1.0000000), wk =   0.0512821
        k(   26) = (  -0.0000000   0.3333333   1.0000000), wk =   0.0512821
        k(   27) = (   0.0000000   0.4166667   1.0000000), wk =   0.0512821
        k(   28) = (   0.0000000   0.5000000   1.0000000), wk =   0.0512821
        k(   29) = (   0.0000000   0.5625000   0.9375000), wk =   0.0512821
        k(   30) = (   0.0000000   0.6250000   0.8750000), wk =   0.0512821
        k(   31) = (   0.0000000   0.6875000   0.8125000), wk =   0.0512821
        k(   32) = (   0.0000000   0.7500000   0.7500000), wk =   0.0512821
        k(   33) = (  -0.0714286   0.7142857   0.7142857), wk =   0.0512821
        k(   34) = (  -0.1428571   0.6785714   0.6785714), wk =   0.0512821
        k(   35) = (  -0.2142857   0.6428571   0.6428571), wk =   0.0512821
        k(   36) = (  -0.2857143   0.6071429   0.6071429), wk =   0.0512821
        k(   37) = (  -0.3571429   0.5714286   0.5714286), wk =   0.0512821
        k(   38) = (  -0.4285714   0.5357143   0.5357143), wk =   0.0512821
        k(   39) = (  -0.5000000   0.5000000   0.5000000), wk =   0.0512821

     Dense  grid:     1459 G-vectors     FFT dimensions: (  16,  16,  16)

     Estimated max dynamical RAM per process >       0.48 MB

     Estimated total dynamical RAM >       0.96 MB

     The potential is recalculated from file :
     /tmp/silicon.save/charge-density

     Starting wfcs are    8 randomized atomic wfcs

     Band Structure Calculation
     Davidson diagonalization with overlap

     ethr =  1.25E-08,  avg # of iterations = 11.9

     total cpu time spent up to now is        0.5 secs

     End of band structure calculation

          k =-0.5000 0.5000 0.5000 (   180 PWs)   bands (ev):

    -3.2882  -0.7787   5.0494   5.0494   7.9020   9.6834   9.6834  13.8814

          k =-0.4500 0.4500 0.4500 (   180 PWs)   bands (ev):

    -3.4322  -0.5717   5.0680   5.0680   7.9221   9.7043   9.7043  13.9142

          k =-0.4000 0.4000 0.4000 (   183 PWs)   bands (ev):

    -3.7860  -0.0419   5.1239   5.1239   7.9787   9.7679   9.7679  13.9955

          k =-0.3500 0.3500 0.3500 (   183 PWs)   bands (ev):

    -4.1778   0.6581   5.2160   5.2160   8.0761   9.8380   9.8380  14.0759

          k =-0.3000 0.3000 0.3000 (   186 PWs)   bands (ev):

    -4.5639   1.4630   5.3431   5.3431   8.1932   9.8826   9.8826  13.8880

          k =-0.2500 0.2500 0.2500 (   180 PWs)   bands (ev):

    -4.8956   2.3522   5.5060   5.5060   8.3594   9.8558   9.8558  13.2368

          k =-0.2000 0.2000 0.2000 (   178 PWs)   bands (ev):

    -5.1850   3.2838   5.6931   5.6931   8.5760   9.7080   9.7080  12.4078

          k =-0.1500 0.1500 0.1500 (   172 PWs)   bands (ev):

    -5.4043   4.2396   5.8958   5.8958   8.7978   9.4605   9.4605  11.5453

          k =-0.1000 0.1000 0.1000 (   172 PWs)   bands (ev):

    -5.5692   5.1629   6.0908   6.0908   8.9357   9.1830   9.1830  10.7185

          k =-0.0500 0.0500 0.0500 (   172 PWs)   bands (ev):

    -5.6686   5.9471   6.2411   6.2411   8.9523   8.9638   8.9638  10.0848

          k = 0.0000 0.0000 0.0000 (   169 PWs)   bands (ev):

    -5.6928   6.3026   6.3026   6.3026   8.8797   8.8797   8.8797   9.8668

          k = 0.0000 0.0000 0.0909 (   173 PWs)   bands (ev):

    -5.6681   6.0837   6.1415   6.1415   8.7880   9.0796   9.0796  10.0757

          k = 0.0000 0.0000 0.1818 (   173 PWs)   bands (ev):

    -5.5585   5.5430   5.7778   5.7778   8.5474   9.5792   9.5792  10.5381

          k = 0.0000 0.0000 0.2727 (   173 PWs)   bands (ev):

    -5.3759   4.8464   5.3444   5.3444   8.2261  10.2366  10.2366  10.8341

          k = 0.0000 0.0000 0.3636 (   181 PWs)   bands (ev):

    -5.1329   4.0691   4.9107   4.9107   7.8707  10.4722  10.9607  10.9607

          k = 0.0000 0.0000 0.4545 (   178 PWs)   bands (ev):

    -4.8007   3.2699   4.5131   4.5131   7.5490   9.7977  11.7507  11.7507

          k = 0.0000 0.0000 0.5455 (   178 PWs)   bands (ev):

    -4.4072   2.4573   4.1641   4.1641   7.2707   9.0892  12.5690  12.5690

          k = 0.0000 0.0000 0.6364 (   194 PWs)   bands (ev):

    -3.9601   1.5919   3.8704   3.8704   7.0404   8.4476  13.3594  13.3594

          k = 0.0000 0.0000 0.7273 (   190 PWs)   bands (ev):

    -3.4291   0.7812   3.6418   3.6418   6.8960   7.9124  14.2148  14.2148

          k = 0.0000 0.0000 0.8182 (   194 PWs)   bands (ev):

    -2.8538  -0.0134   3.4747   3.4747   6.8055   7.4849  15.0795  15.0795

          k = 0.0000 0.0000 0.9091 (   190 PWs)   bands (ev):

    -2.2014  -0.7810   3.3752   3.3752   6.8371   7.1663  15.9288  15.9288

          k = 0.0000 0.0000 1.0000 (   190 PWs)   bands (ev):

    -1.5131  -1.5131   3.3414   3.3414   6.9519   6.9519  16.4687  16.4687

          k =-0.0000 0.0833 1.0000 (   190 PWs)   bands (ev):

    -1.5017  -1.5017   3.2490   3.2490   7.1216   7.1216  16.1754  16.1754

          k = 0.0000 0.1667 1.0000 (   186 PWs)   bands (ev):

    -1.4613  -1.4613   3.0221   3.0221   7.5838   7.5838  15.3143  15.3143

          k = 0.0000 0.2500 1.0000 (   192 PWs)   bands (ev):

    -1.4295  -1.4295   2.7526   2.7526   8.2373   8.2373  14.2314  14.2314

          k =-0.0000 0.3333 1.0000 (   188 PWs)   bands (ev):

    -1.3762  -1.3762   2.5146   2.5146   9.0350   9.0350  13.1396  13.1396

          k = 0.0000 0.4167 1.0000 (   192 PWs)   bands (ev):

    -1.3491  -1.3491   2.3525   2.3525   9.9029   9.9029  12.0796  12.0796

          k = 0.0000 0.5000 1.0000 (   200 PWs)   bands (ev):

    -1.3495  -1.3495   2.2942   2.2942  10.5723  10.5723  11.3364  11.3364

          k = 0.0000 0.5625 0.9375 (   191 PWs)   bands (ev):

    -1.5882  -1.1022   2.0965   2.6194   9.6510  10.6179  11.8270  11.8973

          k = 0.0000 0.6250 0.8750 (   189 PWs)   bands (ev):

    -1.7670  -0.9815   1.9513   3.0913   8.5976  10.5342  12.5277  12.7911

          k = 0.0000 0.6875 0.8125 (   188 PWs)   bands (ev):

    -1.8690  -0.9333   1.8623   3.5639   7.7873  10.4673  13.2840  13.7501

          k = 0.0000 0.7500 0.7500 (   186 PWs)   bands (ev):

    -1.8984  -0.9212   1.8331   3.7824   7.4582  10.4443  13.8752  14.4004

          k =-0.0714 0.7143 0.7143 (   186 PWs)   bands (ev):

    -2.1711  -0.6907   1.8307   3.9298   7.6348  11.2082  13.1684  13.3791

          k =-0.1429 0.6786 0.6786 (   183 PWs)   bands (ev):

    -2.4868  -0.5446   2.1239   4.1230   7.8865  11.8941  12.2962  12.4818

          k =-0.2143 0.6429 0.6429 (   182 PWs)   bands (ev):

    -2.7747  -0.5444   2.6762   4.3487   8.1742  11.2155  11.4867  13.0422

          k =-0.2857 0.6071 0.6071 (   182 PWs)   bands (ev):

    -3.0076  -0.6149   3.3750   4.5905   8.4612  10.3224  10.7684  13.8995

          k =-0.3571 0.5714 0.5714 (   180 PWs)   bands (ev):

    -3.1687  -0.6949   4.1135   4.8172   8.5295   9.7116  10.2004  14.3150

          k =-0.4286 0.5357 0.5357 (   180 PWs)   bands (ev):

    -3.2544  -0.7584   4.7595   4.9861   8.1560   9.6315   9.8163  14.0403

          k =-0.5000 0.5000 0.5000 (   180 PWs)   bands (ev):

    -3.2882  -0.7787   5.0494   5.0494   7.9020   9.6834   9.6834  13.8814

     Writing output data file silicon.save/

     init_run     :      0.01s CPU      0.01s WALL (       1 calls)
     electrons    :      0.39s CPU      0.42s WALL (       1 calls)

     Called by init_run:
     wfcinit      :      0.00s CPU      0.00s WALL (       1 calls)
     potinit      :      0.00s CPU      0.00s WALL (       1 calls)
     hinit0       :      0.01s CPU      0.01s WALL (       1 calls)

     Called by electrons:
     c_bands      :      0.39s CPU      0.42s WALL (       1 calls)
     v_of_rho     :      0.00s CPU      0.00s WALL (       1 calls)

     Called by c_bands:
     init_us_2    :      0.00s CPU      0.00s WALL (      39 calls)
     cegterg      :      0.36s CPU      0.39s WALL (      39 calls)

     Called by sum_band:

     Called by *egterg:
     h_psi        :      0.23s CPU      0.24s WALL (     541 calls)
     g_psi        :      0.00s CPU      0.00s WALL (     463 calls)
     cdiaghg      :      0.09s CPU      0.10s WALL (     502 calls)

     Called by h_psi:
     h_psi:pot    :      0.22s CPU      0.24s WALL (     541 calls)
     h_psi:calbec :      0.01s CPU      0.01s WALL (     541 calls)
     vloc_psi     :      0.21s CPU      0.23s WALL (     541 calls)
     add_vuspsi   :      0.01s CPU      0.01s WALL (     541 calls)

     General routines
     calbec       :      0.01s CPU      0.01s WALL (     541 calls)
     fft          :      0.00s CPU      0.00s WALL (       3 calls)
     fftw         :      0.19s CPU      0.21s WALL (    6024 calls)
     davcio       :      0.00s CPU      0.00s WALL (      78 calls)

     Parallel routines
     fft_scatt_xy :      0.02s CPU      0.03s WALL (    6027 calls)
     fft_scatt_yz :      0.03s CPU      0.03s WALL (    6027 calls)

     PWSCF        :      0.53s CPU      0.56s WALL


   This run was terminated on:  14: 0:35  14Sep2019            

=------------------------------------------------------------------------------=
   JOB DONE.
=------------------------------------------------------------------------------=
