### Running on host: cl

     Program DOS v.6.7MaX starts on 17Apr2021 at 21:23: 2 

     This program is part of the open-source Quantum ESPRESSO suite
     for quantum simulation of materials; please cite
         "P. Giannozzi et al., J. Phys.:Condens. Matter 21 395502 (2009);
         "P. Giannozzi et al., J. Phys.:Condens. Matter 29 465901 (2017);
          URL http://www.quantum-espresso.org", 
     in publications or presentations arising from this work. More details at
     http://www.quantum-espresso.org/quote

     Parallel version (MPI), running on     2 processors

     MPI processes distributed on     1 nodes
     R & G space division:  proc/nbgrp/npool/nimage =       2

     Reading xml data from directory:

     /tmp/QE/fe.save/
     file Fe.pbe-nd-rrkjus.UPF: wavefunction(s)  4S renormalized

     IMPORTANT: XC functional enforced from input :
     Exchange-correlation= PBE
                           (   1   4   3   4   0   0   0)
     Any further DFT definition will be discarded
     Please, verify this is what you really want


     Parallelization info
     --------------------
     sticks:   dense  smooth     PW     G-vecs:    dense   smooth      PW
     Min         166      84     31                 1902      704     160
     Max         167      85     32                 1903      705     161
     Sum         333     169     63                 3805     1409     321


     Check: negative core charge=   -0.000022

     Tetrahedra used


     DOS          :      1.58s CPU      1.52s WALL


   This run was terminated on:  21:23: 3  17Apr2021            

=------------------------------------------------------------------------------=
   JOB DONE.
=------------------------------------------------------------------------------=
