### Running on host: cl

     Program PROJWFC v.6.7MaX starts on 17Apr2021 at 21:23: 4 

     This program is part of the open-source Quantum ESPRESSO suite
     for quantum simulation of materials; please cite
         "P. Giannozzi et al., J. Phys.:Condens. Matter 21 395502 (2009);
         "P. Giannozzi et al., J. Phys.:Condens. Matter 29 465901 (2017);
          URL http://www.quantum-espresso.org", 
     in publications or presentations arising from this work. More details at
     http://www.quantum-espresso.org/quote

     Parallel version (MPI), running on     2 processors

     MPI processes distributed on     1 nodes
     R & G space division:  proc/nbgrp/npool/nimage =       2

     Reading xml data from directory:

     /tmp/QE/fe.save/
     file Fe.pbe-nd-rrkjus.UPF: wavefunction(s)  4S renormalized

     IMPORTANT: XC functional enforced from input :
     Exchange-correlation= PBE
                           (   1   4   3   4   0   0   0)
     Any further DFT definition will be discarded
     Please, verify this is what you really want


     Parallelization info
     --------------------
     sticks:   dense  smooth     PW     G-vecs:    dense   smooth      PW
     Min         166      84     31                 1902      704     160
     Max         167      85     32                 1903      705     161
     Sum         333     169     63                 3805     1409     321


     Check: negative core charge=   -0.000022

     Linear tetrahedron method (read from file) 
     [opt_tetra]  Linear tetrahedron method is used.

     Calling projwave .... 

  Problem Sizes 
  natomwfc =            6
  nbnd     =            8
  nkstot   =          136
  npwx     =           92
  nkb      =           18


     Atomic states used for projection
     (read from pseudopotential files):

     state #   1: atom   1 (Fe ), wfc  1 (l=0 m= 1)
     state #   2: atom   1 (Fe ), wfc  2 (l=2 m= 1)
     state #   3: atom   1 (Fe ), wfc  2 (l=2 m= 2)
     state #   4: atom   1 (Fe ), wfc  2 (l=2 m= 3)
     state #   5: atom   1 (Fe ), wfc  2 (l=2 m= 4)
     state #   6: atom   1 (Fe ), wfc  2 (l=2 m= 5)

 k =   0.0000000000  0.0000000000  0.0833333333
==== e(   1) =     4.88238 eV ==== 
     psi = 0.998*[#   1]
    |psi|^2 = 0.998
==== e(   2) =    10.61296 eV ==== 
     psi = 0.333*[#   3]+0.333*[#   4]+0.333*[#   6]
    |psi|^2 = 1.000
==== e(   3) =    10.61296 eV ==== 
     psi = 0.333*[#   3]+0.333*[#   4]+0.333*[#   6]
    |psi|^2 = 1.000
==== e(   4) =    10.65070 eV ==== 
     psi = 0.333*[#   3]+0.333*[#   4]+0.333*[#   6]
    |psi|^2 = 1.000
==== e(   5) =    11.68162 eV ==== 
     psi = 0.500*[#   2]+0.500*[#   5]
    |psi|^2 = 0.999
==== e(   6) =    11.76538 eV ==== 
     psi = 0.500*[#   2]+0.500*[#   5]
    |psi|^2 = 0.999
==== e(   7) =    36.42757 eV ==== 

    |psi|^2 = 0.000
==== e(   8) =    37.17630 eV ==== 

    |psi|^2 = 0.000

 k =   0.0000000000 -0.0833333333  0.1666666667
==== e(   1) =     5.43058 eV ==== 
     psi = 0.991*[#   1]+0.002*[#   2]+0.002*[#   5]+0.001*[#   3]+0.001*[#   4]
          +0.001*[#   6]
    |psi|^2 = 0.998
==== e(   2) =    10.48725 eV ==== 
     psi = 0.333*[#   3]+0.333*[#   4]+0.333*[#   6]
    |psi|^2 = 1.000
==== e(   3) =    10.59523 eV ==== 
     psi = 0.323*[#   3]+0.323*[#   4]+0.323*[#   6]+0.013*[#   2]+0.013*[#   5]
          +0.004*[#   1]
    |psi|^2 = 1.000
==== e(   4) =    10.92415 eV ==== 
     psi = 0.333*[#   3]+0.333*[#   4]+0.333*[#   6]
    |psi|^2 = 1.000
==== e(   5) =    11.53720 eV ==== 
     psi = 0.487*[#   2]+0.487*[#   5]+0.008*[#   3]+0.008*[#   4]+0.008*[#   6]
          
    |psi|^2 = 0.999
==== e(   6) =    11.80526 eV ==== 
     psi = 0.497*[#   2]+0.497*[#   5]+0.003*[#   1]
    |psi|^2 = 0.999
==== e(   7) =    33.97622 eV ==== 

    |psi|^2 = 0.000
==== e(   8) =    36.13787 eV ==== 

    |psi|^2 = 0.000

 k =   0.0000000000 -0.1666666667  0.2500000000
==== e(   1) =     6.42919 eV ==== 
     psi = 0.934*[#   1]+0.014*[#   3]+0.014*[#   4]+0.014*[#   6]+0.011*[#   2]
          +0.011*[#   5]
    |psi|^2 = 0.998
==== e(   2) =    10.25562 eV ==== 
     psi = 0.333*[#   3]+0.333*[#   4]+0.333*[#   6]
    |psi|^2 = 1.000
==== e(   3) =    10.50750 eV ==== 
     psi = 0.254*[#   3]+0.254*[#   4]+0.254*[#   6]+0.092*[#   2]+0.092*[#   5]
          +0.054*[#   1]
    |psi|^2 = 1.000
==== e(   4) =    11.44401 eV ==== 
     psi = 0.333*[#   3]+0.333*[#   4]+0.333*[#   6]
    |psi|^2 = 1.000
==== e(   5) =    11.47549 eV ==== 
     psi = 0.406*[#   2]+0.406*[#   5]+0.062*[#   3]+0.062*[#   4]+0.062*[#   6]
          
    |psi|^2 = 0.999
==== e(   6) =    11.85107 eV ==== 
     psi = 0.491*[#   2]+0.491*[#   5]+0.010*[#   1]+0.002*[#   3]+0.002*[#   4]
          +0.002*[#   6]
    |psi|^2 = 0.999
==== e(   7) =    30.33213 eV ==== 

    |psi|^2 = 0.000
==== e(   8) =    34.39148 eV ==== 

    |psi|^2 = 0.000

 k =   0.0000000000 -0.2500000000  0.3333333333
==== e(   1) =     7.54485 eV ==== 
     psi = 0.668*[#   1]+0.075*[#   3]+0.075*[#   4]+0.075*[#   6]+0.052*[#   2]
          +0.052*[#   5]
    |psi|^2 = 0.997
==== e(   2) =     9.99664 eV ==== 
     psi = 0.333*[#   3]+0.333*[#   4]+0.333*[#   6]
    |psi|^2 = 1.000
==== e(   3) =    10.58667 eV ==== 
     psi = 0.268*[#   1]+0.179*[#   2]+0.179*[#   5]+0.123*[#   3]+0.123*[#   4]
          +0.123*[#   6]
    |psi|^2 = 0.996
==== e(   4) =    11.60082 eV ==== 
     psi = 0.290*[#   2]+0.290*[#   5]+0.135*[#   3]+0.135*[#   4]+0.135*[#   6]
          +0.015*[#   1]
    |psi|^2 = 0.999
==== e(   5) =    11.92337 eV ==== 
     psi = 0.478*[#   2]+0.478*[#   5]+0.042*[#   1]
    |psi|^2 = 0.998
==== e(   6) =    12.09416 eV ==== 
     psi = 0.333*[#   3]+0.333*[#   4]+0.333*[#   6]
    |psi|^2 = 0.999
==== e(   7) =    26.50748 eV ==== 
     psi = 0.006*[#   1]
    |psi|^2 = 0.006
==== e(   8) =    32.76455 eV ==== 

    |psi|^2 = 0.000

 k =   0.0000000000 -0.3333333333  0.4166666667
==== e(   1) =     8.11727 eV ==== 
     psi = 0.230*[#   1]+0.166*[#   3]+0.166*[#   4]+0.166*[#   6]+0.134*[#   2]
          +0.134*[#   5]
    |psi|^2 = 0.995
==== e(   2) =     9.77944 eV ==== 
     psi = 0.333*[#   3]+0.333*[#   4]+0.333*[#   6]
    |psi|^2 = 1.000
==== e(   3) =    11.22629 eV ==== 
     psi = 0.338*[#   2]+0.338*[#   5]+0.290*[#   1]+0.001*[#   3]+0.001*[#   4]
          +0.001*[#   6]
    |psi|^2 = 0.970
==== e(   4) =    11.79113 eV ==== 
     psi = 0.305*[#   2]+0.305*[#   5]+0.125*[#   3]+0.125*[#   4]+0.125*[#   6]
          +0.013*[#   1]
    |psi|^2 = 0.996
==== e(   5) =    12.32427 eV ==== 
     psi = 0.392*[#   1]+0.222*[#   2]+0.222*[#   5]+0.040*[#   3]+0.040*[#   4]
          +0.040*[#   6]
    |psi|^2 = 0.956
==== e(   6) =    12.71096 eV ==== 
     psi = 0.333*[#   3]+0.333*[#   4]+0.333*[#   6]
    |psi|^2 = 0.999
==== e(   7) =    22.98447 eV ==== 
     psi = 0.072*[#   1]+0.002*[#   3]+0.002*[#   4]+0.002*[#   6]
    |psi|^2 = 0.077
==== e(   8) =    31.55815 eV ==== 

    |psi|^2 = 0.000

 k =   0.0000000000 -0.4166666667  0.5000000000
==== e(   1) =     8.18995 eV ==== 
     psi = 0.195*[#   3]+0.195*[#   4]+0.195*[#   6]+0.176*[#   2]+0.176*[#   5]
          +0.063*[#   1]
    |psi|^2 = 0.998
==== e(   2) =     9.65685 eV ==== 
     psi = 0.333*[#   3]+0.333*[#   4]+0.333*[#   6]
    |psi|^2 = 1.000
==== e(   3) =    11.61405 eV ==== 
     psi = 0.445*[#   2]+0.445*[#   5]+0.029*[#   1]+0.013*[#   3]+0.013*[#   4]
          +0.013*[#   6]
    |psi|^2 = 0.957
==== e(   4) =    11.79460 eV ==== 
     psi = 0.340*[#   2]+0.340*[#   5]+0.105*[#   3]+0.105*[#   4]+0.105*[#   6]
          
    |psi|^2 = 0.995
==== e(   5) =    13.09529 eV ==== 
     psi = 0.333*[#   3]+0.333*[#   4]+0.333*[#   6]
    |psi|^2 = 0.999
==== e(   6) =    13.57611 eV ==== 
     psi = 0.286*[#   1]+0.036*[#   2]+0.036*[#   5]+0.010*[#   3]+0.010*[#   4]
          +0.010*[#   6]
    |psi|^2 = 0.390
==== e(   7) =    20.39295 eV ==== 
     psi = 0.613*[#   1]+0.011*[#   3]+0.011*[#   4]+0.011*[#   6]+0.002*[#   2]
          +0.002*[#   5]
    |psi|^2 = 0.649
==== e(   8) =    30.92020 eV ==== 

    |psi|^2 = 0.000

 k =  -0.0833333333  0.0833333333  0.0833333333
==== e(   1) =     5.15964 eV ==== 
     psi = 0.996*[#   1]
    |psi|^2 = 0.998
==== e(   2) =    10.53176 eV ==== 
     psi = 0.331*[#   3]+0.331*[#   4]+0.331*[#   6]+0.004*[#   2]+0.004*[#   5]
          
    |psi|^2 = 1.000
==== e(   3) =    10.53176 eV ==== 
     psi = 0.331*[#   3]+0.331*[#   4]+0.331*[#   6]+0.004*[#   2]+0.004*[#   5]
          
    |psi|^2 = 1.000
==== e(   4) =    10.86925 eV ==== 
     psi = 0.332*[#   3]+0.332*[#   4]+0.332*[#   6]+0.002*[#   1]
    |psi|^2 = 1.000
==== e(   5) =    11.70102 eV ==== 
     psi = 0.496*[#   2]+0.496*[#   5]+0.002*[#   3]+0.002*[#   4]+0.002*[#   6]
          
    |psi|^2 = 0.999
==== e(   6) =    11.70102 eV ==== 
     psi = 0.496*[#   2]+0.496*[#   5]+0.002*[#   3]+0.002*[#   4]+0.002*[#   6]
          
    |psi|^2 = 0.999
==== e(   7) =    35.49074 eV ==== 

    |psi|^2 = 0.000
==== e(   8) =    35.49074 eV ==== 

    |psi|^2 = 0.000

 k =  -0.0833333333 -0.0833333333  0.2500000000
==== e(   1) =     6.20075 eV ==== 
     psi = 0.960*[#   1]+0.010*[#   2]+0.010*[#   5]+0.007*[#   3]+0.007*[#   4]
          +0.007*[#   6]
    |psi|^2 = 0.998
==== e(   2) =    10.41960 eV ==== 
     psi = 0.328*[#   3]+0.328*[#   4]+0.328*[#   6]+0.010*[#   1]+0.002*[#   2]
          +0.002*[#   5]
    |psi|^2 = 1.000
==== e(   3) =    10.46835 eV ==== 
     psi = 0.295*[#   3]+0.295*[#   4]+0.295*[#   6]+0.057*[#   2]+0.057*[#   5]
          
    |psi|^2 = 1.000
==== e(   4) =    11.30205 eV ==== 
     psi = 0.329*[#   3]+0.329*[#   4]+0.329*[#   6]+0.012*[#   1]
    |psi|^2 = 1.000
==== e(   5) =    11.36895 eV ==== 
     psi = 0.443*[#   2]+0.443*[#   5]+0.038*[#   3]+0.038*[#   4]+0.038*[#   6]
          
    |psi|^2 = 0.999
==== e(   6) =    11.89690 eV ==== 
     psi = 0.487*[#   2]+0.487*[#   5]+0.017*[#   1]+0.002*[#   3]+0.002*[#   4]
          +0.002*[#   6]
    |psi|^2 = 0.999
==== e(   7) =    31.95984 eV ==== 

    |psi|^2 = 0.000
==== e(   8) =    33.32806 eV ==== 

    |psi|^2 = 0.000

 k =  -0.0833333333 -0.1666666667  0.3333333333
==== e(   1) =     7.28885 eV ==== 
     psi = 0.815*[#   1]+0.037*[#   2]+0.037*[#   5]+0.036*[#   3]+0.036*[#   4]
          +0.036*[#   6]
    |psi|^2 = 0.998
==== e(   2) =    10.17929 eV ==== 
     psi = 0.295*[#   3]+0.295*[#   4]+0.295*[#   6]+0.057*[#   2]+0.057*[#   5]
          
    |psi|^2 = 1.000
==== e(   3) =    10.34739 eV ==== 
     psi = 0.239*[#   3]+0.239*[#   4]+0.239*[#   6]+0.107*[#   2]+0.107*[#   5]
          +0.070*[#   1]
    |psi|^2 = 0.999
==== e(   4) =    11.38306 eV ==== 
     psi = 0.333*[#   2]+0.333*[#   5]+0.110*[#   3]+0.110*[#   4]+0.110*[#   6]
          +0.002*[#   1]
    |psi|^2 = 0.999
==== e(   5) =    11.88785 eV ==== 
     psi = 0.232*[#   3]+0.232*[#   4]+0.232*[#   6]+0.151*[#   2]+0.151*[#   5]
          +0.002*[#   1]
    |psi|^2 = 0.999
==== e(   6) =    12.06223 eV ==== 
     psi = 0.315*[#   2]+0.315*[#   5]+0.107*[#   1]+0.087*[#   3]+0.087*[#   4]
          +0.087*[#   6]
    |psi|^2 = 0.998
==== e(   7) =    28.60399 eV ==== 
     psi = 0.001*[#   1]
    |psi|^2 = 0.001
==== e(   8) =    31.24487 eV ==== 

    |psi|^2 = 0.001

 k =  -0.0833333333 -0.2500000000  0.4166666667
==== e(   1) =     8.17294 eV ==== 
     psi = 0.410*[#   1]+0.124*[#   3]+0.124*[#   4]+0.124*[#   6]+0.107*[#   2]
          +0.107*[#   5]
    |psi|^2 = 0.996
==== e(   2) =     9.94134 eV ==== 
     psi = 0.308*[#   3]+0.308*[#   4]+0.308*[#   6]+0.037*[#   2]+0.037*[#   5]
          +0.001*[#   1]
    |psi|^2 = 1.000
==== e(   3) =    10.50274 eV ==== 
     psi = 0.229*[#   2]+0.229*[#   5]+0.217*[#   1]+0.106*[#   3]+0.106*[#   4]
          +0.106*[#   6]
    |psi|^2 = 0.992
==== e(   4) =    11.58724 eV ==== 
     psi = 0.251*[#   2]+0.251*[#   5]+0.162*[#   3]+0.162*[#   4]+0.162*[#   6]
          +0.011*[#   1]
    |psi|^2 = 0.999
==== e(   5) =    12.12501 eV ==== 
     psi = 0.321*[#   2]+0.321*[#   5]+0.095*[#   3]+0.095*[#   4]+0.095*[#   6]
          +0.070*[#   1]
    |psi|^2 = 0.997
==== e(   6) =    12.85768 eV ==== 
     psi = 0.268*[#   1]+0.204*[#   3]+0.204*[#   4]+0.204*[#   6]+0.054*[#   2]
          +0.054*[#   5]
    |psi|^2 = 0.990
==== e(   7) =    24.89909 eV ==== 
     psi = 0.019*[#   1]
    |psi|^2 = 0.021
==== e(   8) =    29.91444 eV ==== 
     psi = 0.001*[#   1]
    |psi|^2 = 0.002

 k =  -0.0833333333 -0.3333333333  0.5000000000
==== e(   1) =     8.39828 eV ==== 
     psi = 0.182*[#   3]+0.182*[#   4]+0.182*[#   6]+0.173*[#   2]+0.173*[#   5]
          +0.106*[#   1]
    |psi|^2 = 0.997
==== e(   2) =     9.79210 eV ==== 
     psi = 0.326*[#   3]+0.326*[#   4]+0.326*[#   6]+0.011*[#   2]+0.011*[#   5]
          
    |psi|^2 = 1.000
==== e(   3) =    10.93748 eV ==== 
     psi = 0.374*[#   2]+0.374*[#   5]+0.112*[#   1]+0.034*[#   3]+0.034*[#   4]
          +0.034*[#   6]
    |psi|^2 = 0.962
==== e(   4) =    11.71455 eV ==== 
     psi = 0.292*[#   2]+0.292*[#   5]+0.138*[#   3]+0.138*[#   4]+0.138*[#   6]
          
    |psi|^2 = 0.997
==== e(   5) =    12.55017 eV ==== 
     psi = 0.226*[#   3]+0.226*[#   4]+0.226*[#   6]+0.113*[#   2]+0.113*[#   5]
          +0.071*[#   1]
    |psi|^2 = 0.976
==== e(   6) =    14.06957 eV ==== 
     psi = 0.478*[#   1]+0.090*[#   3]+0.090*[#   4]+0.090*[#   6]+0.034*[#   2]
          +0.034*[#   5]
    |psi|^2 = 0.818
==== e(   7) =    21.65945 eV ==== 
     psi = 0.224*[#   1]+0.004*[#   3]+0.004*[#   4]+0.004*[#   6]
    |psi|^2 = 0.238
==== e(   8) =    29.04870 eV ==== 
     psi = 0.004*[#   1]
    |psi|^2 = 0.004

 k =  -0.0833333333  0.5833333333 -0.4166666667
==== e(   1) =     8.39426 eV ==== 
     psi = 0.191*[#   2]+0.191*[#   5]+0.191*[#   3]+0.191*[#   4]+0.191*[#   6]
          +0.044*[#   1]
    |psi|^2 = 1.000
==== e(   2) =     9.73921 eV ==== 
     psi = 0.330*[#   3]+0.330*[#   4]+0.330*[#   6]+0.005*[#   2]+0.005*[#   5]
          
    |psi|^2 = 1.000
==== e(   3) =    11.12115 eV ==== 
     psi = 0.427*[#   2]+0.427*[#   5]+0.024*[#   3]+0.024*[#   4]+0.024*[#   6]
          
    |psi|^2 = 0.927
==== e(   4) =    11.71447 eV ==== 
     psi = 0.301*[#   2]+0.301*[#   5]+0.131*[#   3]+0.131*[#   4]+0.131*[#   6]
          +0.005*[#   1]
    |psi|^2 = 0.999
==== e(   5) =    12.79583 eV ==== 
     psi = 0.278*[#   3]+0.278*[#   4]+0.278*[#   6]+0.056*[#   2]+0.056*[#   5]
          
    |psi|^2 = 0.947
==== e(   6) =    15.03751 eV ==== 
     psi = 0.030*[#   3]+0.030*[#   4]+0.030*[#   6]+0.017*[#   2]+0.017*[#   5]
          
    |psi|^2 = 0.124
==== e(   7) =    20.01492 eV ==== 
     psi = 0.934*[#   1]+0.014*[#   3]+0.014*[#   4]+0.014*[#   6]+0.003*[#   2]
          +0.003*[#   5]
    |psi|^2 = 0.982
==== e(   8) =    28.74038 eV ==== 
     psi = 0.008*[#   1]
    |psi|^2 = 0.008

 k =  -0.1666666667  0.1666666667  0.0833333333
==== e(   1) =     5.95046 eV ==== 
     psi = 0.973*[#   1]+0.008*[#   3]+0.008*[#   4]+0.008*[#   6]+0.001*[#   2]
          +0.001*[#   5]
    |psi|^2 = 0.998
==== e(   2) =    10.32394 eV ==== 
     psi = 0.328*[#   3]+0.328*[#   4]+0.328*[#   6]+0.008*[#   2]+0.008*[#   5]
          
    |psi|^2 = 1.000
==== e(   3) =    10.43780 eV ==== 
     psi = 0.305*[#   3]+0.305*[#   4]+0.305*[#   6]+0.038*[#   2]+0.038*[#   5]
          +0.008*[#   1]
    |psi|^2 = 1.000
==== e(   4) =    11.32069 eV ==== 
     psi = 0.327*[#   3]+0.327*[#   4]+0.327*[#   6]+0.017*[#   1]+0.001*[#   2]
          +0.001*[#   5]
    |psi|^2 = 1.000
==== e(   5) =    11.60048 eV ==== 
     psi = 0.459*[#   2]+0.459*[#   5]+0.027*[#   3]+0.027*[#   4]+0.027*[#   6]
          
    |psi|^2 = 0.999
==== e(   6) =    11.74604 eV ==== 
     psi = 0.492*[#   2]+0.492*[#   5]+0.005*[#   3]+0.005*[#   4]+0.005*[#   6]
          
    |psi|^2 = 0.999
==== e(   7) =    32.20772 eV ==== 

    |psi|^2 = 0.000
==== e(   8) =    34.00037 eV ==== 

    |psi|^2 = 0.000

 k =  -0.1666666667 -0.1666666667  0.4166666667
==== e(   1) =     8.25005 eV ==== 
     psi = 0.539*[#   1]+0.095*[#   3]+0.095*[#   4]+0.095*[#   6]+0.087*[#   2]
          +0.087*[#   5]
    |psi|^2 = 0.996
==== e(   2) =     9.91465 eV ==== 
     psi = 0.220*[#   2]+0.220*[#   5]+0.186*[#   3]+0.186*[#   4]+0.186*[#   6]
          
    |psi|^2 = 1.000
==== e(   3) =    10.29329 eV ==== 
     psi = 0.295*[#   3]+0.295*[#   4]+0.295*[#   6]+0.095*[#   1]+0.010*[#   2]
          +0.010*[#   5]
    |psi|^2 = 0.999
==== e(   4) =    11.43176 eV ==== 
     psi = 0.280*[#   2]+0.280*[#   5]+0.147*[#   3]+0.147*[#   4]+0.147*[#   6]
          
    |psi|^2 = 0.999
==== e(   5) =    12.06980 eV ==== 
     psi = 0.341*[#   2]+0.341*[#   5]+0.095*[#   3]+0.095*[#   4]+0.095*[#   6]
          +0.031*[#   1]
    |psi|^2 = 0.999
==== e(   6) =    12.96516 eV ==== 
     psi = 0.324*[#   1]+0.181*[#   3]+0.181*[#   4]+0.181*[#   6]+0.062*[#   2]
          +0.062*[#   5]
    |psi|^2 = 0.993
==== e(   7) =    26.88173 eV ==== 

    |psi|^2 = 0.000
==== e(   8) =    27.67533 eV ==== 
     psi = 0.009*[#   1]
    |psi|^2 = 0.010

 k =  -0.1666666667 -0.2500000000  0.5000000000
==== e(   1) =     8.77879 eV ==== 
     psi = 0.180*[#   1]+0.177*[#   3]+0.177*[#   4]+0.177*[#   6]+0.141*[#   2]
          +0.141*[#   5]
    |psi|^2 = 0.995
==== e(   2) =     9.76000 eV ==== 
     psi = 0.207*[#   3]+0.207*[#   4]+0.207*[#   6]+0.185*[#   2]+0.185*[#   5]
          +0.007*[#   1]
    |psi|^2 = 0.998
==== e(   3) =    10.38411 eV ==== 
     psi = 0.193*[#   3]+0.193*[#   4]+0.193*[#   6]+0.154*[#   2]+0.154*[#   5]
          +0.103*[#   1]
    |psi|^2 = 0.990
==== e(   4) =    11.61511 eV ==== 
     psi = 0.247*[#   2]+0.247*[#   5]+0.169*[#   3]+0.169*[#   4]+0.169*[#   6]
          
    |psi|^2 = 0.999
==== e(   5) =    12.23949 eV ==== 
     psi = 0.241*[#   2]+0.241*[#   5]+0.155*[#   3]+0.155*[#   4]+0.155*[#   6]
          +0.048*[#   1]
    |psi|^2 = 0.996
==== e(   6) =    14.39052 eV ==== 
     psi = 0.583*[#   1]+0.096*[#   3]+0.096*[#   4]+0.096*[#   6]+0.031*[#   2]
          +0.031*[#   5]
    |psi|^2 = 0.933
==== e(   7) =    23.61830 eV ==== 
     psi = 0.054*[#   1]+0.001*[#   3]+0.001*[#   4]+0.001*[#   6]
    |psi|^2 = 0.058
==== e(   8) =    26.26079 eV ==== 
     psi = 0.023*[#   1]
    |psi|^2 = 0.024

 k =  -0.1666666667  0.6666666667 -0.4166666667
==== e(   1) =     8.80897 eV ==== 
     psi = 0.194*[#   3]+0.194*[#   4]+0.194*[#   6]+0.186*[#   2]+0.186*[#   5]
          +0.045*[#   1]
    |psi|^2 = 0.998
==== e(   2) =     9.78668 eV ==== 
     psi = 0.291*[#   3]+0.291*[#   4]+0.291*[#   6]+0.062*[#   2]+0.062*[#   5]
          
    |psi|^2 = 0.999
==== e(   3) =    10.48908 eV ==== 
     psi = 0.346*[#   2]+0.346*[#   5]+0.084*[#   3]+0.084*[#   4]+0.084*[#   6]
          +0.021*[#   1]
    |psi|^2 = 0.963
==== e(   4) =    11.73125 eV ==== 
     psi = 0.261*[#   2]+0.261*[#   5]+0.158*[#   3]+0.158*[#   4]+0.158*[#   6]
          +0.003*[#   1]
    |psi|^2 = 0.999
==== e(   5) =    12.45683 eV ==== 
     psi = 0.235*[#   3]+0.235*[#   4]+0.235*[#   6]+0.133*[#   2]+0.133*[#   5]
          +0.012*[#   1]
    |psi|^2 = 0.983
==== e(   6) =    16.14289 eV ==== 
     psi = 0.312*[#   1]+0.029*[#   3]+0.029*[#   4]+0.029*[#   6]+0.011*[#   2]
          +0.011*[#   5]
    |psi|^2 = 0.422
==== e(   7) =    20.74369 eV ==== 
     psi = 0.540*[#   1]+0.007*[#   3]+0.007*[#   4]+0.007*[#   6]+0.001*[#   2]
          +0.001*[#   5]
    |psi|^2 = 0.565
==== e(   8) =    25.65616 eV ==== 
     psi = 0.059*[#   1]
    |psi|^2 = 0.060

 k =  -0.2500000000  0.2500000000  0.0833333333
==== e(   1) =     7.07650 eV ==== 
     psi = 0.842*[#   1]+0.041*[#   3]+0.041*[#   4]+0.041*[#   6]+0.016*[#   2]
          +0.016*[#   5]
    |psi|^2 = 0.998
==== e(   2) =    10.06247 eV ==== 
     psi = 0.329*[#   3]+0.329*[#   4]+0.329*[#   6]+0.007*[#   2]+0.007*[#   5]
          
    |psi|^2 = 1.000
==== e(   3) =    10.36345 eV ==== 
     psi = 0.233*[#   3]+0.233*[#   4]+0.233*[#   6]+0.101*[#   1]+0.100*[#   2]
          +0.100*[#   5]
    |psi|^2 = 0.999
==== e(   4) =    11.60775 eV ==== 
     psi = 0.383*[#   2]+0.383*[#   5]+0.077*[#   3]+0.077*[#   4]+0.077*[#   6]
          +0.001*[#   1]
    |psi|^2 = 0.999
==== e(   5) =    11.80088 eV ==== 
     psi = 0.493*[#   2]+0.493*[#   5]+0.004*[#   3]+0.004*[#   4]+0.004*[#   6]
          
    |psi|^2 = 0.999
==== e(   6) =    11.97086 eV ==== 
     psi = 0.315*[#   3]+0.315*[#   4]+0.315*[#   6]+0.053*[#   1]
    |psi|^2 = 0.999
==== e(   7) =    28.42753 eV ==== 
     psi = 0.001*[#   1]
    |psi|^2 = 0.002
==== e(   8) =    32.48369 eV ==== 

    |psi|^2 = 0.000

 k =  -0.2500000000  0.1666666667  0.1666666667
==== e(   1) =     6.90500 eV ==== 
     psi = 0.900*[#   1]+0.029*[#   3]+0.029*[#   4]+0.029*[#   6]+0.005*[#   2]
          +0.005*[#   5]
    |psi|^2 = 0.998
==== e(   2) =    10.15301 eV ==== 
     psi = 0.317*[#   3]+0.317*[#   4]+0.317*[#   6]+0.019*[#   2]+0.019*[#   5]
          +0.012*[#   1]
    |psi|^2 = 1.000
==== e(   3) =    10.17120 eV ==== 
     psi = 0.285*[#   3]+0.285*[#   4]+0.285*[#   6]+0.072*[#   2]+0.072*[#   5]
          
    |psi|^2 = 1.000
==== e(   4) =    11.59014 eV ==== 
     psi = 0.428*[#   2]+0.428*[#   5]+0.048*[#   3]+0.048*[#   4]+0.048*[#   6]
          
    |psi|^2 = 0.999
==== e(   5) =    11.79972 eV ==== 
     psi = 0.470*[#   2]+0.470*[#   5]+0.019*[#   3]+0.019*[#   4]+0.019*[#   6]
          +0.002*[#   1]
    |psi|^2 = 0.999
==== e(   6) =    11.97592 eV ==== 
     psi = 0.301*[#   3]+0.301*[#   4]+0.301*[#   6]+0.084*[#   1]+0.006*[#   2]
          +0.006*[#   5]
    |psi|^2 = 0.999
==== e(   7) =    30.19664 eV ==== 

    |psi|^2 = 0.000
==== e(   8) =    31.10178 eV ==== 

    |psi|^2 = 0.000

 k =  -0.2500000000  0.7500000000 -0.4166666667
==== e(   1) =     9.21047 eV ==== 
     psi = 0.248*[#   3]+0.248*[#   4]+0.248*[#   6]+0.096*[#   2]+0.096*[#   5]
          +0.058*[#   1]
    |psi|^2 = 0.995
==== e(   2) =     9.59719 eV ==== 
     psi = 0.287*[#   2]+0.287*[#   5]+0.141*[#   3]+0.141*[#   4]+0.141*[#   6]
          
    |psi|^2 = 0.997
==== e(   3) =    10.21592 eV ==== 
     psi = 0.203*[#   2]+0.203*[#   5]+0.185*[#   3]+0.185*[#   4]+0.185*[#   6]
          +0.025*[#   1]
    |psi|^2 = 0.986
==== e(   4) =    11.79782 eV ==== 
     psi = 0.213*[#   2]+0.213*[#   5]+0.191*[#   3]+0.191*[#   4]+0.191*[#   6]
          
    |psi|^2 = 0.999
==== e(   5) =    12.27007 eV ==== 
     psi = 0.198*[#   3]+0.198*[#   4]+0.198*[#   6]+0.190*[#   2]+0.190*[#   5]
          +0.020*[#   1]
    |psi|^2 = 0.994
==== e(   6) =    16.47086 eV ==== 
     psi = 0.569*[#   1]+0.033*[#   3]+0.033*[#   4]+0.033*[#   6]+0.010*[#   2]
          +0.010*[#   5]
    |psi|^2 = 0.687
==== e(   7) =    22.29133 eV ==== 

    |psi|^2 = 0.003
==== e(   8) =    23.33954 eV ==== 
     psi = 0.321*[#   1]+0.002*[#   3]+0.002*[#   4]+0.002*[#   6]
    |psi|^2 = 0.328

 k =  -0.2500000000  0.6666666667 -0.3333333333
==== e(   1) =     9.28159 eV ==== 
     psi = 0.243*[#   3]+0.243*[#   4]+0.243*[#   6]+0.125*[#   2]+0.125*[#   5]
          +0.020*[#   1]
    |psi|^2 = 0.998
==== e(   2) =     9.73527 eV ==== 
     psi = 0.221*[#   3]+0.221*[#   4]+0.221*[#   6]+0.167*[#   2]+0.167*[#   5]
          
    |psi|^2 = 0.997
==== e(   3) =    10.00781 eV ==== 
     psi = 0.336*[#   2]+0.336*[#   5]+0.102*[#   3]+0.102*[#   4]+0.102*[#   6]
          
    |psi|^2 = 0.980
==== e(   4) =    11.93337 eV ==== 
     psi = 0.207*[#   2]+0.207*[#   5]+0.194*[#   3]+0.194*[#   4]+0.194*[#   6]
          +0.002*[#   1]
    |psi|^2 = 0.998
==== e(   5) =    12.25244 eV ==== 
     psi = 0.224*[#   3]+0.224*[#   4]+0.224*[#   6]+0.161*[#   2]+0.161*[#   5]
          
    |psi|^2 = 0.992
==== e(   6) =    18.31904 eV ==== 
     psi = 0.007*[#   3]+0.007*[#   4]+0.007*[#   6]+0.002*[#   2]+0.002*[#   5]
          
    |psi|^2 = 0.027
==== e(   7) =    20.27561 eV ==== 
     psi = 0.469*[#   1]+0.006*[#   3]+0.006*[#   4]+0.006*[#   6]+0.001*[#   2]
          +0.001*[#   5]
    |psi|^2 = 0.489
==== e(   8) =    22.76288 eV ==== 
     psi = 0.497*[#   1]+0.002*[#   3]+0.002*[#   4]+0.002*[#   6]
    |psi|^2 = 0.504

 k =  -0.3333333333  0.3333333333  0.0833333333
==== e(   1) =     7.99521 eV ==== 
     psi = 0.429*[#   1]+0.135*[#   3]+0.135*[#   4]+0.135*[#   6]+0.081*[#   2]
          +0.081*[#   5]
    |psi|^2 = 0.995
==== e(   2) =     9.81831 eV ==== 
     psi = 0.331*[#   3]+0.331*[#   4]+0.331*[#   6]+0.004*[#   2]+0.004*[#   5]
          
    |psi|^2 = 1.000
==== e(   3) =    10.78329 eV ==== 
     psi = 0.391*[#   1]+0.127*[#   3]+0.127*[#   4]+0.127*[#   6]+0.107*[#   2]
          +0.107*[#   5]
    |psi|^2 = 0.986
==== e(   4) =    11.71927 eV ==== 
     psi = 0.312*[#   2]+0.312*[#   5]+0.125*[#   3]+0.125*[#   4]+0.125*[#   6]
          +0.002*[#   1]
    |psi|^2 = 0.999
==== e(   5) =    11.85661 eV ==== 
     psi = 0.496*[#   2]+0.496*[#   5]+0.002*[#   3]+0.002*[#   4]+0.002*[#   6]
          
    |psi|^2 = 0.999
==== e(   6) =    12.74930 eV ==== 
     psi = 0.279*[#   3]+0.279*[#   4]+0.279*[#   6]+0.155*[#   1]
    |psi|^2 = 0.993
==== e(   7) =    24.71311 eV ==== 
     psi = 0.021*[#   1]
    |psi|^2 = 0.022
==== e(   8) =    31.20490 eV ==== 

    |psi|^2 = 0.000

 k =  -0.3333333333  0.2500000000  0.1666666667
==== e(   1) =     7.99705 eV ==== 
     psi = 0.643*[#   1]+0.097*[#   3]+0.097*[#   4]+0.097*[#   6]+0.032*[#   2]
          +0.032*[#   5]
    |psi|^2 = 0.996
==== e(   2) =     9.89342 eV ==== 
     psi = 0.302*[#   3]+0.302*[#   4]+0.302*[#   6]+0.047*[#   2]+0.047*[#   5]
          
    |psi|^2 = 1.000
==== e(   3) =    10.13072 eV ==== 
     psi = 0.249*[#   3]+0.249*[#   4]+0.249*[#   6]+0.108*[#   1]+0.073*[#   2]
          +0.073*[#   5]
    |psi|^2 = 0.998
==== e(   4) =    11.63802 eV ==== 
     psi = 0.377*[#   2]+0.377*[#   5]+0.082*[#   3]+0.082*[#   4]+0.082*[#   6]
          
    |psi|^2 = 0.999
==== e(   5) =    11.88417 eV ==== 
     psi = 0.466*[#   2]+0.466*[#   5]+0.020*[#   3]+0.020*[#   4]+0.020*[#   6]
          +0.008*[#   1]
    |psi|^2 = 0.999
==== e(   6) =    12.85728 eV ==== 
     psi = 0.251*[#   3]+0.251*[#   4]+0.251*[#   6]+0.234*[#   1]+0.005*[#   2]
          +0.005*[#   5]
    |psi|^2 = 0.996
==== e(   7) =    26.80463 eV ==== 
     psi = 0.004*[#   1]
    |psi|^2 = 0.005
==== e(   8) =    29.35501 eV ==== 
     psi = 0.001*[#   1]
    |psi|^2 = 0.002

 k =  -0.4166666667  0.4166666667  0.0833333333
==== e(   1) =     8.23863 eV ==== 
     psi = 0.195*[#   3]+0.195*[#   4]+0.195*[#   6]+0.149*[#   2]+0.149*[#   5]
          +0.114*[#   1]
    |psi|^2 = 0.996
==== e(   2) =     9.64773 eV ==== 
     psi = 0.333*[#   3]+0.333*[#   4]+0.333*[#   6]
    |psi|^2 = 1.000
==== e(   3) =    11.70373 eV ==== 
     psi = 0.297*[#   2]+0.297*[#   5]+0.129*[#   1]+0.080*[#   3]+0.080*[#   4]
          +0.080*[#   6]
    |psi|^2 = 0.964
==== e(   4) =    11.90082 eV ==== 
     psi = 0.499*[#   2]+0.499*[#   5]
    |psi|^2 = 0.999
==== e(   5) =    11.97647 eV ==== 
     psi = 0.216*[#   3]+0.216*[#   4]+0.216*[#   6]+0.174*[#   1]+0.052*[#   2]
          +0.052*[#   5]
    |psi|^2 = 0.925
==== e(   6) =    13.68905 eV ==== 
     psi = 0.345*[#   1]+0.171*[#   3]+0.171*[#   4]+0.171*[#   6]
    |psi|^2 = 0.860
==== e(   7) =    21.52654 eV ==== 
     psi = 0.232*[#   1]+0.005*[#   3]+0.005*[#   4]+0.005*[#   6]
    |psi|^2 = 0.247
==== e(   8) =    30.35833 eV ==== 

    |psi|^2 = 0.000

 k =  -0.4166666667  0.3333333333  0.1666666667
==== e(   1) =     8.52847 eV ==== 
     psi = 0.204*[#   1]+0.192*[#   3]+0.192*[#   4]+0.192*[#   6]+0.108*[#   2]
          +0.108*[#   5]
    |psi|^2 = 0.996
==== e(   2) =     9.70124 eV ==== 
     psi = 0.319*[#   3]+0.319*[#   4]+0.319*[#   6]+0.021*[#   2]+0.021*[#   5]
          
    |psi|^2 = 1.000
==== e(   3) =    10.67271 eV ==== 
     psi = 0.236*[#   1]+0.187*[#   3]+0.187*[#   4]+0.187*[#   6]+0.091*[#   2]
          +0.091*[#   5]
    |psi|^2 = 0.977
==== e(   4) =    11.75283 eV ==== 
     psi = 0.332*[#   2]+0.332*[#   5]+0.112*[#   3]+0.112*[#   4]+0.112*[#   6]
          
    |psi|^2 = 0.999
==== e(   5) =    11.96316 eV ==== 
     psi = 0.442*[#   2]+0.442*[#   5]+0.031*[#   3]+0.031*[#   4]+0.031*[#   6]
          +0.019*[#   1]
    |psi|^2 = 0.998
==== e(   6) =    14.01577 eV ==== 
     psi = 0.464*[#   1]+0.157*[#   3]+0.157*[#   4]+0.157*[#   6]+0.006*[#   2]
          +0.006*[#   5]
    |psi|^2 = 0.947
==== e(   7) =    23.28485 eV ==== 
     psi = 0.067*[#   1]+0.001*[#   3]+0.001*[#   4]+0.001*[#   6]
    |psi|^2 = 0.072
==== e(   8) =    28.29047 eV ==== 
     psi = 0.004*[#   1]
    |psi|^2 = 0.004

 k =  -0.4166666667  0.2500000000  0.2500000000
==== e(   1) =     8.80350 eV ==== 
     psi = 0.303*[#   1]+0.194*[#   3]+0.194*[#   4]+0.194*[#   6]+0.055*[#   2]
          +0.055*[#   5]
    |psi|^2 = 0.994
==== e(   2) =     9.72429 eV ==== 
     psi = 0.237*[#   3]+0.237*[#   4]+0.237*[#   6]+0.145*[#   2]+0.145*[#   5]
          
    |psi|^2 = 0.999
==== e(   3) =    10.10110 eV ==== 
     psi = 0.282*[#   3]+0.282*[#   4]+0.282*[#   6]+0.140*[#   1]+0.004*[#   2]
          +0.004*[#   5]
    |psi|^2 = 0.995
==== e(   4) =    11.70100 eV ==== 
     psi = 0.355*[#   2]+0.355*[#   5]+0.097*[#   3]+0.097*[#   4]+0.097*[#   6]
          
    |psi|^2 = 0.999
==== e(   5) =    11.98113 eV ==== 
     psi = 0.432*[#   2]+0.432*[#   5]+0.039*[#   3]+0.039*[#   4]+0.039*[#   6]
          +0.017*[#   1]
    |psi|^2 = 0.998
==== e(   6) =    14.13605 eV ==== 
     psi = 0.503*[#   1]+0.150*[#   3]+0.150*[#   4]+0.150*[#   6]+0.008*[#   2]
          +0.008*[#   5]
    |psi|^2 = 0.971
==== e(   7) =    25.24859 eV ==== 

    |psi|^2 = 0.000
==== e(   8) =    25.99992 eV ==== 
     psi = 0.033*[#   1]
    |psi|^2 = 0.035

 k =   0.5000000000 -0.5000000000  0.0833333333
==== e(   1) =     8.24279 eV ==== 
     psi = 0.205*[#   3]+0.205*[#   4]+0.205*[#   6]+0.169*[#   2]+0.169*[#   5]
          +0.047*[#   1]
    |psi|^2 = 1.000
==== e(   2) =     9.58675 eV ==== 
     psi = 0.333*[#   3]+0.333*[#   4]+0.333*[#   6]
    |psi|^2 = 1.000
==== e(   3) =    11.82032 eV ==== 
     psi = 0.328*[#   2]+0.328*[#   5]+0.113*[#   3]+0.113*[#   4]+0.113*[#   6]
          +0.004*[#   1]
    |psi|^2 = 0.999
==== e(   4) =    11.91805 eV ==== 
     psi = 0.500*[#   2]+0.500*[#   5]
    |psi|^2 = 0.999
==== e(   5) =    12.40665 eV ==== 
     psi = 0.258*[#   3]+0.258*[#   4]+0.258*[#   6]
    |psi|^2 = 0.773
==== e(   6) =    14.43888 eV ==== 
     psi = 0.076*[#   3]+0.076*[#   4]+0.076*[#   6]
    |psi|^2 = 0.227
==== e(   7) =    19.96979 eV ==== 
     psi = 0.937*[#   1]+0.015*[#   3]+0.015*[#   4]+0.015*[#   6]+0.003*[#   2]
          +0.003*[#   5]
    |psi|^2 = 0.987
==== e(   8) =    30.06272 eV ==== 

    |psi|^2 = 0.000

 k =   0.5000000000 -0.5833333333  0.1666666667
==== e(   1) =     8.55099 eV ==== 
     psi = 0.216*[#   3]+0.216*[#   4]+0.216*[#   6]+0.149*[#   2]+0.149*[#   5]
          +0.054*[#   1]
    |psi|^2 = 0.999
==== e(   2) =     9.60284 eV ==== 
     psi = 0.329*[#   3]+0.329*[#   4]+0.329*[#   6]+0.007*[#   2]+0.007*[#   5]
          
    |psi|^2 = 1.000
==== e(   3) =    11.26773 eV ==== 
     psi = 0.185*[#   2]+0.185*[#   5]+0.168*[#   3]+0.168*[#   4]+0.168*[#   6]
          +0.044*[#   1]
    |psi|^2 = 0.920
==== e(   4) =    11.82642 eV ==== 
     psi = 0.335*[#   2]+0.335*[#   5]+0.109*[#   3]+0.109*[#   4]+0.109*[#   6]
          +0.002*[#   1]
    |psi|^2 = 0.999
==== e(   5) =    12.09474 eV ==== 
     psi = 0.319*[#   2]+0.319*[#   5]+0.109*[#   3]+0.109*[#   4]+0.109*[#   6]
          +0.013*[#   1]
    |psi|^2 = 0.977
==== e(   6) =    15.39631 eV ==== 
     psi = 0.266*[#   1]+0.060*[#   3]+0.060*[#   4]+0.060*[#   6]+0.003*[#   2]
          +0.003*[#   5]
    |psi|^2 = 0.451
==== e(   7) =    20.56005 eV ==== 
     psi = 0.596*[#   1]+0.009*[#   3]+0.009*[#   4]+0.009*[#   6]+0.001*[#   2]
          +0.001*[#   5]
    |psi|^2 = 0.626
==== e(   8) =    27.72597 eV ==== 
     psi = 0.012*[#   1]
    |psi|^2 = 0.012

 k =   0.5000000000 -0.6666666667  0.2500000000
==== e(   1) =     9.00535 eV ==== 
     psi = 0.251*[#   3]+0.251*[#   4]+0.251*[#   6]+0.087*[#   2]+0.087*[#   5]
          +0.069*[#   1]
    |psi|^2 = 0.997
==== e(   2) =     9.64771 eV ==== 
     psi = 0.272*[#   3]+0.272*[#   4]+0.272*[#   6]+0.091*[#   2]+0.091*[#   5]
          
    |psi|^2 = 0.999
==== e(   3) =    10.42920 eV ==== 
     psi = 0.224*[#   3]+0.224*[#   4]+0.224*[#   6]+0.110*[#   2]+0.110*[#   5]
          +0.082*[#   1]
    |psi|^2 = 0.975
==== e(   4) =    11.81082 eV ==== 
     psi = 0.337*[#   2]+0.337*[#   5]+0.108*[#   3]+0.108*[#   4]+0.108*[#   6]
          
    |psi|^2 = 0.999
==== e(   5) =    12.05640 eV ==== 
     psi = 0.369*[#   2]+0.369*[#   5]+0.081*[#   3]+0.081*[#   4]+0.081*[#   6]
          +0.015*[#   1]
    |psi|^2 = 0.996
==== e(   6) =    15.86098 eV ==== 
     psi = 0.580*[#   1]+0.059*[#   3]+0.059*[#   4]+0.059*[#   6]+0.005*[#   2]
          +0.005*[#   5]
    |psi|^2 = 0.768
==== e(   7) =    22.20864 eV ==== 
     psi = 0.164*[#   1]+0.002*[#   3]+0.002*[#   4]+0.002*[#   6]
    |psi|^2 = 0.171
==== e(   8) =    24.87165 eV ==== 
     psi = 0.080*[#   1]
    |psi|^2 = 0.082

 k =   0.4166666667 -0.5833333333  0.2500000000
==== e(   1) =     8.98256 eV ==== 
     psi = 0.252*[#   3]+0.252*[#   4]+0.252*[#   6]+0.107*[#   2]+0.107*[#   5]
          +0.030*[#   1]
    |psi|^2 = 0.999
==== e(   2) =     9.63533 eV ==== 
     psi = 0.298*[#   3]+0.298*[#   4]+0.298*[#   6]+0.052*[#   2]+0.052*[#   5]
          
    |psi|^2 = 0.999
==== e(   3) =    10.61051 eV ==== 
     psi = 0.198*[#   3]+0.198*[#   4]+0.198*[#   6]+0.180*[#   2]+0.180*[#   5]
          
    |psi|^2 = 0.953
==== e(   4) =    11.86614 eV ==== 
     psi = 0.339*[#   2]+0.339*[#   5]+0.106*[#   3]+0.106*[#   4]+0.106*[#   6]
          +0.002*[#   1]
    |psi|^2 = 0.999
==== e(   5) =    12.09977 eV ==== 
     psi = 0.318*[#   2]+0.318*[#   5]+0.118*[#   3]+0.118*[#   4]+0.118*[#   6]
          
    |psi|^2 = 0.991
==== e(   6) =    17.26956 eV ==== 
     psi = 0.017*[#   3]+0.017*[#   4]+0.017*[#   6]+0.002*[#   2]+0.002*[#   5]
          
    |psi|^2 = 0.055
==== e(   7) =    20.25083 eV ==== 
     psi = 0.815*[#   1]+0.010*[#   3]+0.010*[#   4]+0.010*[#   6]+0.001*[#   2]
          +0.001*[#   5]
    |psi|^2 = 0.847
==== e(   8) =    24.56852 eV ==== 
     psi = 0.134*[#   1]
    |psi|^2 = 0.136

 k =   0.4166666667 -0.6666666667  0.3333333333
==== e(   1) =     9.24029 eV ==== 
     psi = 0.318*[#   3]+0.318*[#   4]+0.318*[#   6]+0.018*[#   1]+0.014*[#   2]
          +0.014*[#   5]
    |psi|^2 = 0.999
==== e(   2) =     9.76573 eV ==== 
     psi = 0.217*[#   3]+0.217*[#   4]+0.217*[#   6]+0.172*[#   2]+0.172*[#   5]
          
    |psi|^2 = 0.993
==== e(   3) =    10.16028 eV ==== 
     psi = 0.220*[#   3]+0.220*[#   4]+0.220*[#   6]+0.155*[#   2]+0.155*[#   5]
          +0.010*[#   1]
    |psi|^2 = 0.979
==== e(   4) =    11.92112 eV ==== 
     psi = 0.327*[#   2]+0.327*[#   5]+0.115*[#   3]+0.115*[#   4]+0.115*[#   6]
          
    |psi|^2 = 0.999
==== e(   5) =    12.04646 eV ==== 
     psi = 0.329*[#   2]+0.329*[#   5]+0.112*[#   3]+0.112*[#   4]+0.112*[#   6]
          +0.002*[#   1]
    |psi|^2 = 0.996
==== e(   6) =    18.15070 eV ==== 
     psi = 0.261*[#   1]+0.014*[#   3]+0.014*[#   4]+0.014*[#   6]+0.002*[#   2]
          +0.002*[#   5]
    |psi|^2 = 0.306
==== e(   7) =    20.93455 eV ==== 
     psi = 0.002*[#   3]+0.002*[#   4]+0.002*[#   6]
    |psi|^2 = 0.007
==== e(   8) =    22.44365 eV ==== 
     psi = 0.689*[#   1]+0.003*[#   3]+0.003*[#   4]+0.003*[#   6]
    |psi|^2 = 0.698

 k =   0.0000000000  0.0000000000  0.2500000000
==== e(   1) =     5.95538 eV ==== 
     psi = 0.976*[#   1]+0.011*[#   2]+0.011*[#   5]
    |psi|^2 = 0.999
==== e(   2) =    10.64199 eV ==== 
     psi = 0.333*[#   3]+0.333*[#   4]+0.333*[#   6]
    |psi|^2 = 1.000
==== e(   3) =    10.64199 eV ==== 
     psi = 0.333*[#   3]+0.333*[#   4]+0.333*[#   6]
    |psi|^2 = 1.000
==== e(   4) =    10.93531 eV ==== 
     psi = 0.333*[#   3]+0.333*[#   4]+0.333*[#   6]
    |psi|^2 = 1.000
==== e(   5) =    11.22350 eV ==== 
     psi = 0.500*[#   2]+0.500*[#   5]
    |psi|^2 = 0.999
==== e(   6) =    11.94581 eV ==== 
     psi = 0.488*[#   2]+0.488*[#   5]+0.023*[#   1]
    |psi|^2 = 0.999
==== e(   7) =    33.31655 eV ==== 

    |psi|^2 = 0.000
==== e(   8) =    35.18259 eV ==== 

    |psi|^2 = 0.000

 k =   0.0000000000 -0.0833333333  0.3333333333
==== e(   1) =     6.89906 eV ==== 
     psi = 0.896*[#   1]+0.041*[#   2]+0.041*[#   5]+0.007*[#   3]+0.007*[#   4]
          +0.007*[#   6]
    |psi|^2 = 0.998
==== e(   2) =    10.51544 eV ==== 
     psi = 0.333*[#   3]+0.333*[#   4]+0.333*[#   6]
    |psi|^2 = 1.000
==== e(   3) =    10.54159 eV ==== 
     psi = 0.209*[#   3]+0.209*[#   4]+0.209*[#   6]+0.178*[#   2]+0.178*[#   5]
          +0.017*[#   1]
    |psi|^2 = 1.000
==== e(   4) =    11.07982 eV ==== 
     psi = 0.322*[#   2]+0.322*[#   5]+0.117*[#   3]+0.117*[#   4]+0.117*[#   6]
          +0.004*[#   1]
    |psi|^2 = 0.999
==== e(   5) =    11.38190 eV ==== 
     psi = 0.333*[#   3]+0.333*[#   4]+0.333*[#   6]
    |psi|^2 = 1.000
==== e(   6) =    12.09301 eV ==== 
     psi = 0.459*[#   2]+0.459*[#   5]+0.081*[#   1]
    |psi|^2 = 0.999
==== e(   7) =    30.66009 eV ==== 

    |psi|^2 = 0.000
==== e(   8) =    33.31796 eV ==== 

    |psi|^2 = 0.000

 k =   0.0000000000 -0.1666666667  0.4166666667
==== e(   1) =     7.93098 eV ==== 
     psi = 0.617*[#   1]+0.109*[#   2]+0.109*[#   5]+0.054*[#   3]+0.054*[#   4]
          +0.054*[#   6]
    |psi|^2 = 0.997
==== e(   2) =    10.28651 eV ==== 
     psi = 0.342*[#   2]+0.342*[#   5]+0.088*[#   1]+0.076*[#   3]+0.076*[#   4]
          +0.076*[#   6]
    |psi|^2 = 0.998
==== e(   3) =    10.29245 eV ==== 
     psi = 0.333*[#   3]+0.333*[#   4]+0.333*[#   6]
    |psi|^2 = 1.000
==== e(   4) =    11.34635 eV ==== 
     psi = 0.200*[#   3]+0.200*[#   4]+0.200*[#   6]+0.188*[#   2]+0.188*[#   5]
          +0.025*[#   1]
    |psi|^2 = 0.999
==== e(   5) =    12.03425 eV ==== 
     psi = 0.333*[#   3]+0.333*[#   4]+0.333*[#   6]
    |psi|^2 = 0.999
==== e(   6) =    12.39134 eV ==== 
     psi = 0.361*[#   2]+0.361*[#   5]+0.264*[#   1]+0.003*[#   3]+0.003*[#   4]
          +0.003*[#   6]
    |psi|^2 = 0.996
==== e(   7) =    26.90156 eV ==== 
     psi = 0.005*[#   1]
    |psi|^2 = 0.005
==== e(   8) =    31.96253 eV ==== 

    |psi|^2 = 0.000

 k =   0.0000000000 -0.2500000000  0.5000000000
==== e(   1) =     8.44229 eV ==== 
     psi = 0.204*[#   1]+0.192*[#   2]+0.192*[#   5]+0.136*[#   3]+0.136*[#   4]
          +0.136*[#   6]
    |psi|^2 = 0.996
==== e(   2) =    10.09823 eV ==== 
     psi = 0.333*[#   3]+0.333*[#   4]+0.333*[#   6]
    |psi|^2 = 1.000
==== e(   3) =    10.38029 eV ==== 
     psi = 0.419*[#   2]+0.419*[#   5]+0.129*[#   1]+0.007*[#   3]+0.007*[#   4]
          +0.007*[#   6]
    |psi|^2 = 0.987
==== e(   4) =    11.56270 eV ==== 
     psi = 0.243*[#   2]+0.243*[#   5]+0.170*[#   3]+0.170*[#   4]+0.170*[#   6]
          +0.002*[#   1]
    |psi|^2 = 0.998
==== e(   5) =    12.66427 eV ==== 
     psi = 0.333*[#   3]+0.333*[#   4]+0.333*[#   6]
    |psi|^2 = 0.999
==== e(   6) =    13.36646 eV ==== 
     psi = 0.595*[#   1]+0.145*[#   2]+0.145*[#   5]+0.019*[#   3]+0.019*[#   4]
          +0.019*[#   6]
    |psi|^2 = 0.943
==== e(   7) =    23.32171 eV ==== 
     psi = 0.065*[#   1]+0.001*[#   3]+0.001*[#   4]+0.001*[#   6]
    |psi|^2 = 0.070
==== e(   8) =    30.69049 eV ==== 

    |psi|^2 = 0.000

 k =   0.0000000000 -0.3333333333  0.5833333333
==== e(   1) =     8.47728 eV ==== 
     psi = 0.230*[#   2]+0.230*[#   5]+0.162*[#   3]+0.162*[#   4]+0.162*[#   6]
          +0.054*[#   1]
    |psi|^2 = 0.999
==== e(   2) =     9.98751 eV ==== 
     psi = 0.333*[#   3]+0.333*[#   4]+0.333*[#   6]
    |psi|^2 = 1.000
==== e(   3) =    10.61711 eV ==== 
     psi = 0.464*[#   2]+0.464*[#   5]+0.026*[#   1]
    |psi|^2 = 0.955
==== e(   4) =    11.57432 eV ==== 
     psi = 0.264*[#   2]+0.264*[#   5]+0.156*[#   3]+0.156*[#   4]+0.156*[#   6]
          +0.005*[#   1]
    |psi|^2 = 0.998
==== e(   5) =    13.06015 eV ==== 
     psi = 0.333*[#   3]+0.333*[#   4]+0.333*[#   6]
    |psi|^2 = 0.999
==== e(   6) =    14.92949 eV ==== 
     psi = 0.307*[#   1]+0.040*[#   2]+0.040*[#   5]+0.006*[#   3]+0.006*[#   4]
          +0.006*[#   6]
    |psi|^2 = 0.405
==== e(   7) =    20.55803 eV ==== 
     psi = 0.597*[#   1]+0.009*[#   3]+0.009*[#   4]+0.009*[#   6]+0.002*[#   2]
          +0.002*[#   5]
    |psi|^2 = 0.629
==== e(   8) =    29.95976 eV ==== 

    |psi|^2 = 0.000

 k =  -0.0833333333 -0.0833333333  0.4166666667
==== e(   1) =     7.84445 eV ==== 
     psi = 0.704*[#   1]+0.110*[#   2]+0.110*[#   5]+0.024*[#   3]+0.024*[#   4]
          +0.024*[#   6]
    |psi|^2 = 0.998
==== e(   2) =    10.19725 eV ==== 
     psi = 0.323*[#   2]+0.323*[#   5]+0.118*[#   3]+0.118*[#   4]+0.118*[#   6]
          
    |psi|^2 = 1.000
==== e(   3) =    10.57959 eV ==== 
     psi = 0.318*[#   3]+0.318*[#   4]+0.318*[#   6]+0.032*[#   1]+0.007*[#   2]
          +0.007*[#   5]
    |psi|^2 = 1.000
==== e(   4) =    11.08723 eV ==== 
     psi = 0.215*[#   3]+0.215*[#   4]+0.215*[#   6]+0.177*[#   2]+0.177*[#   5]
          
    |psi|^2 = 1.000
==== e(   5) =    11.83316 eV ==== 
     psi = 0.308*[#   3]+0.308*[#   4]+0.308*[#   6]+0.037*[#   2]+0.037*[#   5]
          
    |psi|^2 = 0.999
==== e(   6) =    12.43122 eV ==== 
     psi = 0.345*[#   2]+0.345*[#   5]+0.259*[#   1]+0.016*[#   3]+0.016*[#   4]
          +0.016*[#   6]
    |psi|^2 = 0.997
==== e(   7) =    28.87585 eV ==== 

    |psi|^2 = 0.000
==== e(   8) =    29.75585 eV ==== 
     psi = 0.002*[#   1]
    |psi|^2 = 0.002

 k =  -0.0833333333 -0.1666666667  0.5000000000
==== e(   1) =     8.59653 eV ==== 
     psi = 0.343*[#   1]+0.202*[#   2]+0.202*[#   5]+0.083*[#   3]+0.083*[#   4]
          +0.083*[#   6]
    |psi|^2 = 0.996
==== e(   2) =     9.87747 eV ==== 
     psi = 0.361*[#   2]+0.361*[#   5]+0.083*[#   3]+0.083*[#   4]+0.083*[#   6]
          +0.027*[#   1]
    |psi|^2 = 0.999
==== e(   3) =    10.47967 eV ==== 
     psi = 0.285*[#   3]+0.285*[#   4]+0.285*[#   6]+0.056*[#   2]+0.056*[#   5]
          +0.032*[#   1]
    |psi|^2 = 0.999
==== e(   4) =    11.36699 eV ==== 
     psi = 0.228*[#   3]+0.228*[#   4]+0.228*[#   6]+0.156*[#   2]+0.156*[#   5]
          +0.002*[#   1]
    |psi|^2 = 0.999
==== e(   5) =    12.28647 eV ==== 
     psi = 0.263*[#   3]+0.263*[#   4]+0.263*[#   6]+0.093*[#   2]+0.093*[#   5]
          +0.026*[#   1]
    |psi|^2 = 0.999
==== e(   6) =    13.39880 eV ==== 
     psi = 0.549*[#   1]+0.132*[#   2]+0.132*[#   5]+0.057*[#   3]+0.057*[#   4]
          +0.057*[#   6]
    |psi|^2 = 0.983
==== e(   7) =    25.45270 eV ==== 
     psi = 0.014*[#   1]
    |psi|^2 = 0.016
==== e(   8) =    28.08811 eV ==== 
     psi = 0.005*[#   1]
    |psi|^2 = 0.006

 k =  -0.0833333333 -0.2500000000  0.5833333333
==== e(   1) =     8.77013 eV ==== 
     psi = 0.262*[#   2]+0.262*[#   5]+0.130*[#   3]+0.130*[#   4]+0.130*[#   6]
          +0.081*[#   1]
    |psi|^2 = 0.997
==== e(   2) =     9.93865 eV ==== 
     psi = 0.331*[#   2]+0.331*[#   5]+0.098*[#   3]+0.098*[#   4]+0.098*[#   6]
          +0.035*[#   1]
    |psi|^2 = 0.990
==== e(   3) =    10.32132 eV ==== 
     psi = 0.236*[#   3]+0.236*[#   4]+0.236*[#   6]+0.135*[#   2]+0.135*[#   5]
          +0.015*[#   1]
    |psi|^2 = 0.994
==== e(   4) =    11.53640 eV ==== 
     psi = 0.203*[#   3]+0.203*[#   4]+0.203*[#   6]+0.193*[#   2]+0.193*[#   5]
          +0.002*[#   1]
    |psi|^2 = 0.999
==== e(   5) =    12.71876 eV ==== 
     psi = 0.301*[#   3]+0.301*[#   4]+0.301*[#   6]+0.037*[#   2]+0.037*[#   5]
          +0.018*[#   1]
    |psi|^2 = 0.995
==== e(   6) =    15.09669 eV ==== 
     psi = 0.631*[#   1]+0.040*[#   2]+0.040*[#   5]+0.027*[#   3]+0.027*[#   4]
          +0.027*[#   6]
    |psi|^2 = 0.794
==== e(   7) =    22.08936 eV ==== 
     psi = 0.196*[#   1]+0.003*[#   3]+0.003*[#   4]+0.003*[#   6]
    |psi|^2 = 0.207
==== e(   8) =    27.19003 eV ==== 
     psi = 0.015*[#   1]
    |psi|^2 = 0.015

 k =  -0.0833333333  0.6666666667 -0.3333333333
==== e(   1) =     8.73759 eV ==== 
     psi = 0.279*[#   2]+0.279*[#   5]+0.136*[#   3]+0.136*[#   4]+0.136*[#   6]
          +0.032*[#   1]
    |psi|^2 = 1.000
==== e(   2) =    10.14552 eV ==== 
     psi = 0.320*[#   3]+0.320*[#   4]+0.320*[#   6]+0.019*[#   2]+0.019*[#   5]
          
    |psi|^2 = 1.000
==== e(   3) =    10.14687 eV ==== 
     psi = 0.465*[#   2]+0.465*[#   5]+0.012*[#   3]+0.012*[#   4]+0.012*[#   6]
          
    |psi|^2 = 0.967
==== e(   4) =    11.56267 eV ==== 
     psi = 0.199*[#   2]+0.199*[#   5]+0.197*[#   3]+0.197*[#   4]+0.197*[#   6]
          +0.009*[#   1]
    |psi|^2 = 0.999
==== e(   5) =    12.91846 eV ==== 
     psi = 0.315*[#   3]+0.315*[#   4]+0.315*[#   6]+0.022*[#   2]+0.022*[#   5]
          
    |psi|^2 = 0.990
==== e(   6) =    16.46016 eV ==== 
     psi = 0.012*[#   2]+0.012*[#   5]+0.006*[#   3]+0.006*[#   4]+0.006*[#   6]
          
    |psi|^2 = 0.042
==== e(   7) =    20.18613 eV ==== 
     psi = 0.918*[#   1]+0.012*[#   3]+0.012*[#   4]+0.012*[#   6]+0.002*[#   2]
          +0.002*[#   5]
    |psi|^2 = 0.959
==== e(   8) =    26.86806 eV ==== 
     psi = 0.028*[#   1]
    |psi|^2 = 0.028

 k =  -0.1666666667 -0.1666666667  0.5833333333
==== e(   1) =     9.09223 eV ==== 
     psi = 0.259*[#   2]+0.259*[#   5]+0.140*[#   1]+0.112*[#   3]+0.112*[#   4]
          +0.112*[#   6]
    |psi|^2 = 0.994
==== e(   2) =     9.51005 eV ==== 
     psi = 0.386*[#   2]+0.386*[#   5]+0.075*[#   3]+0.075*[#   4]+0.075*[#   6]
          
    |psi|^2 = 0.999
==== e(   3) =    10.42544 eV ==== 
     psi = 0.254*[#   3]+0.254*[#   4]+0.254*[#   6]+0.112*[#   2]+0.112*[#   5]
          +0.010*[#   1]
    |psi|^2 = 0.997
==== e(   4) =    11.60166 eV ==== 
     psi = 0.257*[#   3]+0.257*[#   4]+0.257*[#   6]+0.113*[#   2]+0.113*[#   5]
          
    |psi|^2 = 0.999
==== e(   5) =    12.44730 eV ==== 
     psi = 0.262*[#   3]+0.262*[#   4]+0.262*[#   6]+0.089*[#   2]+0.089*[#   5]
          +0.032*[#   1]
    |psi|^2 = 0.998
==== e(   6) =    15.17642 eV ==== 
     psi = 0.712*[#   1]+0.038*[#   2]+0.038*[#   5]+0.038*[#   3]+0.038*[#   4]
          +0.038*[#   6]
    |psi|^2 = 0.901
==== e(   7) =    24.05031 eV ==== 

    |psi|^2 = 0.001
==== e(   8) =    24.74790 eV ==== 
     psi = 0.101*[#   1]+0.001*[#   3]+0.001*[#   4]+0.001*[#   6]
    |psi|^2 = 0.104

 k =  -0.1666666667  0.7500000000 -0.3333333333
==== e(   1) =     9.14181 eV ==== 
     psi = 0.329*[#   2]+0.329*[#   5]+0.105*[#   3]+0.105*[#   4]+0.105*[#   6]
          +0.024*[#   1]
    |psi|^2 = 0.998
==== e(   2) =     9.63467 eV ==== 
     psi = 0.392*[#   2]+0.392*[#   5]+0.065*[#   3]+0.065*[#   4]+0.065*[#   6]
          +0.012*[#   1]
    |psi|^2 = 0.989
==== e(   3) =    10.15201 eV ==== 
     psi = 0.268*[#   3]+0.268*[#   4]+0.268*[#   6]+0.096*[#   2]+0.096*[#   5]
          
    |psi|^2 = 0.997
==== e(   4) =    11.83454 eV ==== 
     psi = 0.254*[#   3]+0.254*[#   4]+0.254*[#   6]+0.116*[#   2]+0.116*[#   5]
          +0.004*[#   1]
    |psi|^2 = 0.998
==== e(   5) =    12.57822 eV ==== 
     psi = 0.290*[#   3]+0.290*[#   4]+0.290*[#   6]+0.058*[#   2]+0.058*[#   5]
          +0.007*[#   1]
    |psi|^2 = 0.993
==== e(   6) =    17.37904 eV ==== 
     psi = 0.368*[#   1]+0.012*[#   3]+0.012*[#   4]+0.012*[#   6]+0.008*[#   2]
          +0.008*[#   5]
    |psi|^2 = 0.419
==== e(   7) =    21.18547 eV ==== 
     psi = 0.373*[#   1]+0.004*[#   3]+0.004*[#   4]+0.004*[#   6]
    |psi|^2 = 0.387
==== e(   8) =    23.87726 eV ==== 
     psi = 0.201*[#   1]+0.001*[#   3]+0.001*[#   4]+0.001*[#   6]
    |psi|^2 = 0.205

 k =  -0.2500000000  0.2500000000  0.2500000000
==== e(   1) =     7.93938 eV ==== 
     psi = 0.758*[#   1]+0.080*[#   3]+0.080*[#   4]+0.080*[#   6]
    |psi|^2 = 0.997
==== e(   2) =     9.90026 eV ==== 
     psi = 0.297*[#   3]+0.297*[#   4]+0.297*[#   6]+0.054*[#   2]+0.054*[#   5]
          
    |psi|^2 = 1.000
==== e(   3) =     9.90026 eV ==== 
     psi = 0.297*[#   3]+0.297*[#   4]+0.297*[#   6]+0.054*[#   2]+0.054*[#   5]
          
    |psi|^2 = 1.000
==== e(   4) =    11.75935 eV ==== 
     psi = 0.446*[#   2]+0.446*[#   5]+0.036*[#   3]+0.036*[#   4]+0.036*[#   6]
          
    |psi|^2 = 0.999
==== e(   5) =    11.75935 eV ==== 
     psi = 0.446*[#   2]+0.446*[#   5]+0.036*[#   3]+0.036*[#   4]+0.036*[#   6]
          
    |psi|^2 = 0.999
==== e(   6) =    12.88192 eV ==== 
     psi = 0.253*[#   3]+0.253*[#   4]+0.253*[#   6]+0.237*[#   1]
    |psi|^2 = 0.997
==== e(   7) =    28.69166 eV ==== 

    |psi|^2 = 0.000
==== e(   8) =    28.69166 eV ==== 

    |psi|^2 = 0.000

 k =  -0.2500000000  0.7500000000 -0.2500000000
==== e(   1) =     9.45769 eV ==== 
     psi = 0.421*[#   2]+0.421*[#   5]+0.050*[#   3]+0.050*[#   4]+0.050*[#   6]
          
    |psi|^2 = 0.994
==== e(   2) =     9.45769 eV ==== 
     psi = 0.421*[#   2]+0.421*[#   5]+0.050*[#   3]+0.050*[#   4]+0.050*[#   6]
          
    |psi|^2 = 0.994
==== e(   3) =     9.92648 eV ==== 
     psi = 0.328*[#   3]+0.328*[#   4]+0.328*[#   6]+0.015*[#   1]
    |psi|^2 = 1.000
==== e(   4) =    12.26357 eV ==== 
     psi = 0.280*[#   3]+0.280*[#   4]+0.280*[#   6]+0.077*[#   2]+0.077*[#   5]
          
    |psi|^2 = 0.995
==== e(   5) =    12.26357 eV ==== 
     psi = 0.280*[#   3]+0.280*[#   4]+0.280*[#   6]+0.077*[#   2]+0.077*[#   5]
          
    |psi|^2 = 0.995
==== e(   6) =    19.85030 eV ==== 
     psi = 0.003*[#   3]+0.003*[#   4]+0.003*[#   6]+0.001*[#   2]+0.001*[#   5]
          
    |psi|^2 = 0.010
==== e(   7) =    19.85030 eV ==== 
     psi = 0.003*[#   3]+0.003*[#   4]+0.003*[#   6]+0.001*[#   2]+0.001*[#   5]
          
    |psi|^2 = 0.010
==== e(   8) =    22.07842 eV ==== 
     psi = 0.968*[#   1]+0.005*[#   3]+0.005*[#   4]+0.005*[#   6]
    |psi|^2 = 0.982

 k =  -0.3333333333  0.3333333333  0.2500000000
==== e(   1) =     8.84177 eV ==== 
     psi = 0.383*[#   1]+0.181*[#   3]+0.181*[#   4]+0.181*[#   6]+0.034*[#   2]
          +0.034*[#   5]
    |psi|^2 = 0.994
==== e(   2) =     9.69771 eV ==== 
     psi = 0.314*[#   3]+0.314*[#   4]+0.314*[#   6]+0.029*[#   2]+0.029*[#   5]
          
    |psi|^2 = 1.000
==== e(   3) =     9.92832 eV ==== 
     psi = 0.258*[#   3]+0.258*[#   4]+0.258*[#   6]+0.111*[#   1]+0.055*[#   2]
          +0.055*[#   5]
    |psi|^2 = 0.996
==== e(   4) =    11.79779 eV ==== 
     psi = 0.410*[#   2]+0.410*[#   5]+0.059*[#   3]+0.059*[#   4]+0.059*[#   6]
          +0.001*[#   1]
    |psi|^2 = 0.999
==== e(   5) =    11.86401 eV ==== 
     psi = 0.471*[#   2]+0.471*[#   5]+0.019*[#   3]+0.019*[#   4]+0.019*[#   6]
          
    |psi|^2 = 0.999
==== e(   6) =    14.07899 eV ==== 
     psi = 0.477*[#   1]+0.167*[#   3]+0.167*[#   4]+0.167*[#   6]
    |psi|^2 = 0.979
==== e(   7) =    25.36094 eV ==== 
     psi = 0.014*[#   1]
    |psi|^2 = 0.015
==== e(   8) =    27.54843 eV ==== 

    |psi|^2 = 0.000

 k =   0.5833333333 -0.5833333333  0.2500000000
==== e(   1) =     8.94349 eV ==== 
     psi = 0.239*[#   3]+0.239*[#   4]+0.239*[#   6]+0.101*[#   2]+0.101*[#   5]
          +0.078*[#   1]
    |psi|^2 = 0.997
==== e(   2) =     9.57592 eV ==== 
     psi = 0.328*[#   3]+0.328*[#   4]+0.328*[#   6]+0.008*[#   2]+0.008*[#   5]
          
    |psi|^2 = 1.000
==== e(   3) =    10.60668 eV ==== 
     psi = 0.277*[#   3]+0.277*[#   4]+0.277*[#   6]+0.115*[#   1]+0.010*[#   2]
          +0.010*[#   5]
    |psi|^2 = 0.965
==== e(   4) =    11.86209 eV ==== 
     psi = 0.387*[#   2]+0.387*[#   5]+0.074*[#   3]+0.074*[#   4]+0.074*[#   6]
          +0.002*[#   1]
    |psi|^2 = 0.999
==== e(   5) =    11.91665 eV ==== 
     psi = 0.492*[#   2]+0.492*[#   5]+0.005*[#   3]+0.005*[#   4]+0.005*[#   6]
          
    |psi|^2 = 0.999
==== e(   6) =    15.64699 eV ==== 
     psi = 0.565*[#   1]+0.073*[#   3]+0.073*[#   4]+0.073*[#   6]
    |psi|^2 = 0.785
==== e(   7) =    22.08416 eV ==== 
     psi = 0.201*[#   1]+0.003*[#   3]+0.003*[#   4]+0.003*[#   6]
    |psi|^2 = 0.210
==== e(   8) =    26.83044 eV ==== 

    |psi|^2 = 0.000

 k =   0.5833333333 -0.6666666667  0.3333333333
==== e(   1) =     9.33030 eV ==== 
     psi = 0.284*[#   3]+0.284*[#   4]+0.284*[#   6]+0.086*[#   1]+0.030*[#   2]
          +0.030*[#   5]
    |psi|^2 = 0.996
==== e(   2) =     9.63441 eV ==== 
     psi = 0.282*[#   3]+0.282*[#   4]+0.282*[#   6]+0.077*[#   2]+0.077*[#   5]
          
    |psi|^2 = 0.999
==== e(   3) =     9.97663 eV ==== 
     psi = 0.285*[#   3]+0.285*[#   4]+0.285*[#   6]+0.132*[#   1]
    |psi|^2 = 0.987
==== e(   4) =    11.86252 eV ==== 
     psi = 0.423*[#   2]+0.423*[#   5]+0.051*[#   3]+0.051*[#   4]+0.051*[#   6]
          
    |psi|^2 = 0.999
==== e(   5) =    11.92513 eV ==== 
     psi = 0.469*[#   2]+0.469*[#   5]+0.020*[#   3]+0.020*[#   4]+0.020*[#   6]
          +0.002*[#   1]
    |psi|^2 = 0.999
==== e(   6) =    15.72556 eV ==== 
     psi = 0.652*[#   1]+0.077*[#   3]+0.077*[#   4]+0.077*[#   6]
    |psi|^2 = 0.884
==== e(   7) =    24.03499 eV ==== 

    |psi|^2 = 0.001
==== e(   8) =    24.73818 eV ==== 
     psi = 0.091*[#   1]
    |psi|^2 = 0.094

 k =   0.5000000000 -0.5000000000  0.2500000000
==== e(   1) =     8.89565 eV ==== 
     psi = 0.244*[#   3]+0.244*[#   4]+0.244*[#   6]+0.117*[#   2]+0.117*[#   5]
          +0.035*[#   1]
    |psi|^2 = 0.999
==== e(   2) =     9.53566 eV ==== 
     psi = 0.333*[#   3]+0.333*[#   4]+0.333*[#   6]
    |psi|^2 = 1.000
==== e(   3) =    10.95690 eV ==== 
     psi = 0.309*[#   3]+0.309*[#   4]+0.309*[#   6]
    |psi|^2 = 0.928
==== e(   4) =    11.89087 eV ==== 
     psi = 0.381*[#   2]+0.381*[#   5]+0.078*[#   3]+0.078*[#   4]+0.078*[#   6]
          +0.002*[#   1]
    |psi|^2 = 0.999
==== e(   5) =    11.93229 eV ==== 
     psi = 0.500*[#   2]+0.500*[#   5]
    |psi|^2 = 0.999
==== e(   6) =    16.89050 eV ==== 
     psi = 0.024*[#   3]+0.024*[#   4]+0.024*[#   6]
    |psi|^2 = 0.072
==== e(   7) =    20.22488 eV ==== 
     psi = 0.890*[#   1]+0.011*[#   3]+0.011*[#   4]+0.011*[#   6]+0.001*[#   2]
          +0.001*[#   5]
    |psi|^2 = 0.926
==== e(   8) =    26.58527 eV ==== 

    |psi|^2 = 0.000

 k =   0.5000000000 -0.5833333333  0.3333333333
==== e(   1) =     9.29257 eV ==== 
     psi = 0.297*[#   3]+0.297*[#   4]+0.297*[#   6]+0.043*[#   2]+0.043*[#   5]
          +0.022*[#   1]
    |psi|^2 = 0.998
==== e(   2) =     9.61366 eV ==== 
     psi = 0.305*[#   3]+0.305*[#   4]+0.305*[#   6]+0.041*[#   2]+0.041*[#   5]
          +0.002*[#   1]
    |psi|^2 = 0.998
==== e(   3) =    10.32822 eV ==== 
     psi = 0.301*[#   3]+0.301*[#   4]+0.301*[#   6]+0.025*[#   2]+0.025*[#   5]
          +0.020*[#   1]
    |psi|^2 = 0.972
==== e(   4) =    11.91383 eV ==== 
     psi = 0.420*[#   2]+0.420*[#   5]+0.053*[#   3]+0.053*[#   4]+0.053*[#   6]
          
    |psi|^2 = 0.999
==== e(   5) =    11.95506 eV ==== 
     psi = 0.469*[#   2]+0.469*[#   5]+0.020*[#   3]+0.020*[#   4]+0.020*[#   6]
          
    |psi|^2 = 0.999
==== e(   6) =    17.74366 eV ==== 
     psi = 0.341*[#   1]+0.020*[#   3]+0.020*[#   4]+0.020*[#   6]
    |psi|^2 = 0.403
==== e(   7) =    21.26792 eV ==== 
     psi = 0.361*[#   1]+0.004*[#   3]+0.004*[#   4]+0.004*[#   6]
    |psi|^2 = 0.373
==== e(   8) =    23.93750 eV ==== 
     psi = 0.176*[#   1]
    |psi|^2 = 0.178

 k =   0.4166666667 -0.5833333333  0.4166666667
==== e(   1) =     9.36256 eV ==== 
     psi = 0.330*[#   3]+0.330*[#   4]+0.330*[#   6]+0.008*[#   1]
    |psi|^2 = 1.000
==== e(   2) =     9.95281 eV ==== 
     psi = 0.292*[#   3]+0.292*[#   4]+0.292*[#   6]+0.056*[#   2]+0.056*[#   5]
          
    |psi|^2 = 0.988
==== e(   3) =     9.95281 eV ==== 
     psi = 0.292*[#   3]+0.292*[#   4]+0.292*[#   6]+0.056*[#   2]+0.056*[#   5]
          
    |psi|^2 = 0.988
==== e(   4) =    11.95244 eV ==== 
     psi = 0.443*[#   2]+0.443*[#   5]+0.038*[#   3]+0.038*[#   4]+0.038*[#   6]
          
    |psi|^2 = 0.999
==== e(   5) =    11.95244 eV ==== 
     psi = 0.443*[#   2]+0.443*[#   5]+0.038*[#   3]+0.038*[#   4]+0.038*[#   6]
          
    |psi|^2 = 0.999
==== e(   6) =    20.07280 eV ==== 
     psi = 0.004*[#   3]+0.004*[#   4]+0.004*[#   6]
    |psi|^2 = 0.012
==== e(   7) =    20.07280 eV ==== 
     psi = 0.004*[#   3]+0.004*[#   4]+0.004*[#   6]
    |psi|^2 = 0.012
==== e(   8) =    22.13077 eV ==== 
     psi = 0.896*[#   1]+0.003*[#   3]+0.003*[#   4]+0.003*[#   6]
    |psi|^2 = 0.904

 k =   0.0000000000  0.0000000000  0.4166666667
==== e(   1) =     7.69713 eV ==== 
     psi = 0.762*[#   1]+0.119*[#   2]+0.119*[#   5]
    |psi|^2 = 0.999
==== e(   2) =    10.42386 eV ==== 
     psi = 0.500*[#   2]+0.500*[#   5]
    |psi|^2 = 1.000
==== e(   3) =    10.83709 eV ==== 
     psi = 0.333*[#   3]+0.333*[#   4]+0.333*[#   6]
    |psi|^2 = 1.000
==== e(   4) =    10.83709 eV ==== 
     psi = 0.333*[#   3]+0.333*[#   4]+0.333*[#   6]
    |psi|^2 = 1.000
==== e(   5) =    11.43635 eV ==== 
     psi = 0.333*[#   3]+0.333*[#   4]+0.333*[#   6]
    |psi|^2 = 1.000
==== e(   6) =    12.41719 eV ==== 
     psi = 0.381*[#   2]+0.381*[#   5]+0.236*[#   1]
    |psi|^2 = 0.998
==== e(   7) =    30.92446 eV ==== 

    |psi|^2 = 0.000
==== e(   8) =    31.50381 eV ==== 

    |psi|^2 = 0.000

 k =   0.0000000000 -0.0833333333  0.5000000000
==== e(   1) =     8.48039 eV ==== 
     psi = 0.462*[#   1]+0.242*[#   2]+0.242*[#   5]+0.017*[#   3]+0.017*[#   4]
          +0.017*[#   6]
    |psi|^2 = 0.998
==== e(   2) =     9.93007 eV ==== 
     psi = 0.465*[#   2]+0.465*[#   5]+0.021*[#   3]+0.021*[#   4]+0.021*[#   6]
          +0.006*[#   1]
    |psi|^2 = 1.000
==== e(   3) =    10.81714 eV ==== 
     psi = 0.333*[#   3]+0.333*[#   4]+0.333*[#   6]
    |psi|^2 = 1.000
==== e(   4) =    11.14845 eV ==== 
     psi = 0.291*[#   3]+0.291*[#   4]+0.291*[#   6]+0.061*[#   2]+0.061*[#   5]
          +0.004*[#   1]
    |psi|^2 = 0.999
==== e(   5) =    11.95513 eV ==== 
     psi = 0.333*[#   3]+0.333*[#   4]+0.333*[#   6]
    |psi|^2 = 0.999
==== e(   6) =    13.06856 eV ==== 
     psi = 0.522*[#   1]+0.232*[#   2]+0.232*[#   5]+0.003*[#   3]+0.003*[#   4]
          +0.003*[#   6]
    |psi|^2 = 0.995
==== e(   7) =    27.64221 eV ==== 
     psi = 0.003*[#   1]
    |psi|^2 = 0.003
==== e(   8) =    29.75406 eV ==== 

    |psi|^2 = 0.000

 k =   0.0000000000 -0.1666666667  0.5833333333
==== e(   1) =     8.83630 eV ==== 
     psi = 0.328*[#   2]+0.328*[#   5]+0.145*[#   1]+0.065*[#   3]+0.065*[#   4]
          +0.065*[#   6]
    |psi|^2 = 0.997
==== e(   2) =     9.66215 eV ==== 
     psi = 0.469*[#   2]+0.469*[#   5]+0.038*[#   1]+0.007*[#   3]+0.007*[#   4]
          +0.007*[#   6]
    |psi|^2 = 0.996
==== e(   3) =    10.68924 eV ==== 
     psi = 0.333*[#   3]+0.333*[#   4]+0.333*[#   6]
    |psi|^2 = 1.000
==== e(   4) =    11.39101 eV ==== 
     psi = 0.249*[#   3]+0.249*[#   4]+0.249*[#   6]+0.125*[#   2]+0.125*[#   5]
          +0.001*[#   1]
    |psi|^2 = 0.999
==== e(   5) =    12.58664 eV ==== 
     psi = 0.333*[#   3]+0.333*[#   4]+0.333*[#   6]
    |psi|^2 = 0.999
==== e(   6) =    14.50979 eV ==== 
     psi = 0.754*[#   1]+0.078*[#   2]+0.078*[#   5]+0.010*[#   3]+0.010*[#   4]
          +0.010*[#   6]
    |psi|^2 = 0.941
==== e(   7) =    23.99859 eV ==== 
     psi = 0.053*[#   1]
    |psi|^2 = 0.056
==== e(   8) =    28.39924 eV ==== 

    |psi|^2 = 0.000

 k =   0.0000000000 -0.2500000000  0.6666666667
==== e(   1) =     8.79718 eV ==== 
     psi = 0.355*[#   2]+0.355*[#   5]+0.086*[#   3]+0.086*[#   4]+0.086*[#   6]
          +0.032*[#   1]
    |psi|^2 = 0.999
==== e(   2) =     9.69988 eV ==== 
     psi = 0.486*[#   2]+0.486*[#   5]+0.011*[#   1]
    |psi|^2 = 0.984
==== e(   3) =    10.60632 eV ==== 
     psi = 0.333*[#   3]+0.333*[#   4]+0.333*[#   6]
    |psi|^2 = 1.000
==== e(   4) =    11.44817 eV ==== 
     psi = 0.236*[#   3]+0.236*[#   4]+0.236*[#   6]+0.140*[#   2]+0.140*[#   5]
          +0.012*[#   1]
    |psi|^2 = 0.999
==== e(   5) =    12.99954 eV ==== 
     psi = 0.333*[#   3]+0.333*[#   4]+0.333*[#   6]
    |psi|^2 = 0.999
==== e(   6) =    16.51107 eV ==== 
     psi = 0.379*[#   1]+0.017*[#   2]+0.017*[#   5]+0.005*[#   3]+0.005*[#   4]
          +0.005*[#   6]
    |psi|^2 = 0.426
==== e(   7) =    20.96482 eV ==== 
     psi = 0.542*[#   1]+0.007*[#   3]+0.007*[#   4]+0.007*[#   6]+0.001*[#   2]
          +0.001*[#   5]
    |psi|^2 = 0.565
==== e(   8) =    27.63644 eV ==== 

    |psi|^2 = 0.000

 k =  -0.0833333333 -0.0833333333  0.5833333333
==== e(   1) =     8.90228 eV ==== 
     psi = 0.361*[#   2]+0.361*[#   5]+0.202*[#   1]+0.025*[#   3]+0.025*[#   4]
          +0.025*[#   6]
    |psi|^2 = 0.997
==== e(   2) =     9.49717 eV ==== 
     psi = 0.466*[#   2]+0.466*[#   5]+0.023*[#   3]+0.023*[#   4]+0.023*[#   6]
          
    |psi|^2 = 1.000
==== e(   3) =    10.91426 eV ==== 
     psi = 0.311*[#   3]+0.311*[#   4]+0.311*[#   6]+0.033*[#   2]+0.033*[#   5]
          
    |psi|^2 = 0.999
==== e(   4) =    11.41259 eV ==== 
     psi = 0.310*[#   3]+0.310*[#   4]+0.310*[#   6]+0.034*[#   2]+0.034*[#   5]
          
    |psi|^2 = 0.999
==== e(   5) =    12.32905 eV ==== 
     psi = 0.318*[#   3]+0.318*[#   4]+0.318*[#   6]+0.019*[#   2]+0.019*[#   5]
          +0.008*[#   1]
    |psi|^2 = 0.999
==== e(   6) =    14.36919 eV ==== 
     psi = 0.764*[#   1]+0.088*[#   2]+0.088*[#   5]+0.012*[#   3]+0.012*[#   4]
          +0.012*[#   6]
    |psi|^2 = 0.975
==== e(   7) =    26.11053 eV ==== 

    |psi|^2 = 0.000
==== e(   8) =    26.56476 eV ==== 
     psi = 0.021*[#   1]
    |psi|^2 = 0.022

 k =  -0.0833333333 -0.1666666667  0.6666666667
==== e(   1) =     8.97991 eV ==== 
     psi = 0.415*[#   2]+0.415*[#   5]+0.042*[#   3]+0.042*[#   4]+0.042*[#   6]
          +0.041*[#   1]
    |psi|^2 = 0.998
==== e(   2) =     9.30443 eV ==== 
     psi = 0.471*[#   2]+0.471*[#   5]+0.017*[#   1]+0.012*[#   3]+0.012*[#   4]
          +0.012*[#   6]
    |psi|^2 = 0.996
==== e(   3) =    10.79599 eV ==== 
     psi = 0.316*[#   3]+0.316*[#   4]+0.316*[#   6]+0.025*[#   2]+0.025*[#   5]
          +0.002*[#   1]
    |psi|^2 = 0.999
==== e(   4) =    11.69557 eV ==== 
     psi = 0.296*[#   3]+0.296*[#   4]+0.296*[#   6]+0.054*[#   2]+0.054*[#   5]
          +0.004*[#   1]
    |psi|^2 = 0.999
==== e(   5) =    12.71732 eV ==== 
     psi = 0.321*[#   3]+0.321*[#   4]+0.321*[#   6]+0.013*[#   2]+0.013*[#   5]
          +0.008*[#   1]
    |psi|^2 = 0.998
==== e(   6) =    16.41068 eV ==== 
     psi = 0.726*[#   1]+0.021*[#   2]+0.021*[#   5]+0.010*[#   3]+0.010*[#   4]
          +0.010*[#   6]
    |psi|^2 = 0.798
==== e(   7) =    22.84750 eV ==== 
     psi = 0.142*[#   1]+0.002*[#   3]+0.002*[#   4]+0.002*[#   6]
    |psi|^2 = 0.148
==== e(   8) =    25.41826 eV ==== 
     psi = 0.046*[#   1]
    |psi|^2 = 0.047

 k =  -0.0833333333  0.7500000000 -0.2500000000
==== e(   1) =     8.89806 eV ==== 
     psi = 0.423*[#   2]+0.423*[#   5]+0.047*[#   3]+0.047*[#   4]+0.047*[#   6]
          +0.012*[#   1]
    |psi|^2 = 0.999
==== e(   2) =     9.33974 eV ==== 
     psi = 0.487*[#   2]+0.487*[#   5]+0.005*[#   3]+0.005*[#   4]+0.005*[#   6]
          
    |psi|^2 = 0.991
==== e(   3) =    10.73029 eV ==== 
     psi = 0.322*[#   3]+0.322*[#   4]+0.322*[#   6]+0.013*[#   2]+0.013*[#   5]
          +0.006*[#   1]
    |psi|^2 = 1.000
==== e(   4) =    11.77687 eV ==== 
     psi = 0.288*[#   3]+0.288*[#   4]+0.288*[#   6]+0.062*[#   2]+0.062*[#   5]
          +0.010*[#   1]
    |psi|^2 = 0.999
==== e(   5) =    12.89918 eV ==== 
     psi = 0.326*[#   3]+0.326*[#   4]+0.326*[#   6]+0.009*[#   2]+0.009*[#   5]
          
    |psi|^2 = 0.996
==== e(   6) =    18.22796 eV ==== 
     psi = 0.004*[#   2]+0.004*[#   5]+0.001*[#   3]+0.001*[#   4]+0.001*[#   6]
          
    |psi|^2 = 0.012
==== e(   7) =    20.57605 eV ==== 
     psi = 0.867*[#   1]+0.008*[#   3]+0.008*[#   4]+0.008*[#   6]+0.001*[#   2]
          +0.001*[#   5]
    |psi|^2 = 0.894
==== e(   8) =    25.06246 eV ==== 
     psi = 0.078*[#   1]
    |psi|^2 = 0.079

 k =  -0.1666666667  0.8333333333 -0.2500000000
==== e(   1) =     9.04831 eV ==== 
     psi = 0.468*[#   2]+0.468*[#   5]+0.021*[#   3]+0.021*[#   4]+0.021*[#   6]
          
    |psi|^2 = 0.999
==== e(   2) =     9.10123 eV ==== 
     psi = 0.469*[#   2]+0.469*[#   5]+0.017*[#   3]+0.017*[#   4]+0.017*[#   6]
          +0.007*[#   1]
    |psi|^2 = 0.996
==== e(   3) =    10.68399 eV ==== 
     psi = 0.325*[#   3]+0.325*[#   4]+0.325*[#   6]+0.011*[#   1]+0.007*[#   2]
          +0.007*[#   5]
    |psi|^2 = 1.000
==== e(   4) =    12.19855 eV ==== 
     psi = 0.311*[#   3]+0.311*[#   4]+0.311*[#   6]+0.032*[#   2]+0.032*[#   5]
          
    |psi|^2 = 0.997
==== e(   5) =    12.64011 eV ==== 
     psi = 0.317*[#   3]+0.317*[#   4]+0.317*[#   6]+0.021*[#   2]+0.021*[#   5]
          +0.003*[#   1]
    |psi|^2 = 0.996
==== e(   6) =    18.84293 eV ==== 
     psi = 0.343*[#   1]+0.005*[#   3]+0.005*[#   4]+0.005*[#   6]+0.003*[#   2]
          +0.003*[#   5]
    |psi|^2 = 0.362
==== e(   7) =    21.68512 eV ==== 
     psi = 0.001*[#   3]+0.001*[#   4]+0.001*[#   6]
    |psi|^2 = 0.004
==== e(   8) =    22.73957 eV ==== 
     psi = 0.609*[#   1]+0.003*[#   3]+0.003*[#   4]+0.003*[#   6]
    |psi|^2 = 0.618

 k =   0.5833333333 -0.5833333333  0.4166666667
==== e(   1) =     9.61300 eV ==== 
     psi = 0.318*[#   3]+0.318*[#   4]+0.318*[#   6]+0.022*[#   2]+0.022*[#   5]
          
    |psi|^2 = 0.998
==== e(   2) =     9.61300 eV ==== 
     psi = 0.318*[#   3]+0.318*[#   4]+0.318*[#   6]+0.022*[#   2]+0.022*[#   5]
          
    |psi|^2 = 0.998
==== e(   3) =     9.97385 eV ==== 
     psi = 0.308*[#   3]+0.308*[#   4]+0.308*[#   6]+0.058*[#   1]
    |psi|^2 = 0.982
==== e(   4) =    11.93113 eV ==== 
     psi = 0.478*[#   2]+0.478*[#   5]+0.015*[#   3]+0.015*[#   4]+0.015*[#   6]
          
    |psi|^2 = 0.999
==== e(   5) =    11.93113 eV ==== 
     psi = 0.478*[#   2]+0.478*[#   5]+0.015*[#   3]+0.015*[#   4]+0.015*[#   6]
          
    |psi|^2 = 0.999
==== e(   6) =    17.76617 eV ==== 
     psi = 0.535*[#   1]+0.024*[#   3]+0.024*[#   4]+0.024*[#   6]
    |psi|^2 = 0.608
==== e(   7) =    23.28631 eV ==== 

    |psi|^2 = 0.001
==== e(   8) =    23.28631 eV ==== 

    |psi|^2 = 0.001

 k =   0.5000000000 -0.5000000000  0.4166666667
==== e(   1) =     9.61352 eV ==== 
     psi = 0.333*[#   3]+0.333*[#   4]+0.333*[#   6]
    |psi|^2 = 0.998
==== e(   2) =     9.64397 eV ==== 
     psi = 0.315*[#   3]+0.315*[#   4]+0.315*[#   6]+0.023*[#   2]+0.023*[#   5]
          +0.007*[#   1]
    |psi|^2 = 0.996
==== e(   3) =    10.03922 eV ==== 
     psi = 0.329*[#   3]+0.329*[#   4]+0.329*[#   6]
    |psi|^2 = 0.986
==== e(   4) =    11.94406 eV ==== 
     psi = 0.477*[#   2]+0.477*[#   5]+0.015*[#   3]+0.015*[#   4]+0.015*[#   6]
          
    |psi|^2 = 0.999
==== e(   5) =    11.94667 eV ==== 
     psi = 0.499*[#   2]+0.499*[#   5]
    |psi|^2 = 0.999
==== e(   6) =    19.77607 eV ==== 
     psi = 0.005*[#   3]+0.005*[#   4]+0.005*[#   6]
    |psi|^2 = 0.014
==== e(   7) =    21.01469 eV ==== 
     psi = 0.418*[#   1]+0.003*[#   3]+0.003*[#   4]+0.003*[#   6]
    |psi|^2 = 0.428
==== e(   8) =    23.03376 eV ==== 

    |psi|^2 = 0.002

 k =   0.0000000000  0.0000000000  0.5833333333
==== e(   1) =     8.81664 eV ==== 
     psi = 0.388*[#   2]+0.388*[#   5]+0.223*[#   1]
    |psi|^2 = 0.999
==== e(   2) =     9.50459 eV ==== 
     psi = 0.500*[#   2]+0.500*[#   5]
    |psi|^2 = 1.000
==== e(   3) =    11.33222 eV ==== 
     psi = 0.333*[#   3]+0.333*[#   4]+0.333*[#   6]
    |psi|^2 = 0.999
==== e(   4) =    11.33222 eV ==== 
     psi = 0.333*[#   3]+0.333*[#   4]+0.333*[#   6]
    |psi|^2 = 0.999
==== e(   5) =    12.02757 eV ==== 
     psi = 0.333*[#   3]+0.333*[#   4]+0.333*[#   6]
    |psi|^2 = 0.999
==== e(   6) =    14.12567 eV ==== 
     psi = 0.768*[#   1]+0.111*[#   2]+0.111*[#   5]
    |psi|^2 = 0.991
==== e(   7) =    27.85823 eV ==== 

    |psi|^2 = 0.000
==== e(   8) =    27.85823 eV ==== 

    |psi|^2 = 0.000

 k =   0.0000000000 -0.0833333333  0.6666666667
==== e(   1) =     8.87969 eV ==== 
     psi = 0.454*[#   2]+0.454*[#   5]+0.069*[#   1]+0.007*[#   3]+0.007*[#   4]
          +0.007*[#   6]
    |psi|^2 = 0.998
==== e(   2) =     9.11515 eV ==== 
     psi = 0.493*[#   2]+0.493*[#   5]+0.003*[#   1]+0.003*[#   3]+0.003*[#   4]
          +0.003*[#   6]
    |psi|^2 = 0.999
==== e(   3) =    11.44343 eV ==== 
     psi = 0.333*[#   3]+0.333*[#   4]+0.333*[#   6]
    |psi|^2 = 0.999
==== e(   4) =    11.63738 eV ==== 
     psi = 0.319*[#   3]+0.319*[#   4]+0.319*[#   6]+0.019*[#   2]+0.019*[#   5]
          +0.004*[#   1]
    |psi|^2 = 0.999
==== e(   5) =    12.51129 eV ==== 
     psi = 0.333*[#   3]+0.333*[#   4]+0.333*[#   6]
    |psi|^2 = 0.999
==== e(   6) =    15.86376 eV ==== 
     psi = 0.868*[#   1]+0.034*[#   2]+0.034*[#   5]+0.003*[#   3]+0.003*[#   4]
          +0.003*[#   6]
    |psi|^2 = 0.944
==== e(   7) =    24.86264 eV ==== 
     psi = 0.031*[#   1]
    |psi|^2 = 0.033
==== e(   8) =    26.39538 eV ==== 

    |psi|^2 = 0.001

 k =   0.0000000000 -0.1666666667  0.7500000000
==== e(   1) =     8.76877 eV ==== 
     psi = 0.467*[#   2]+0.467*[#   5]+0.018*[#   3]+0.018*[#   4]+0.018*[#   6]
          +0.010*[#   1]
    |psi|^2 = 0.999
==== e(   2) =     8.99215 eV ==== 
     psi = 0.496*[#   2]+0.496*[#   5]+0.004*[#   1]
    |psi|^2 = 0.996
==== e(   3) =    11.41757 eV ==== 
     psi = 0.333*[#   3]+0.333*[#   4]+0.333*[#   6]
    |psi|^2 = 0.999
==== e(   4) =    11.78514 eV ==== 
     psi = 0.308*[#   3]+0.308*[#   4]+0.308*[#   6]+0.030*[#   2]+0.030*[#   5]
          +0.014*[#   1]
    |psi|^2 = 0.999
==== e(   5) =    12.93019 eV ==== 
     psi = 0.333*[#   3]+0.333*[#   4]+0.333*[#   6]
    |psi|^2 = 0.999
==== e(   6) =    18.16950 eV ==== 
     psi = 0.488*[#   1]+0.006*[#   2]+0.006*[#   5]+0.003*[#   3]+0.003*[#   4]
          +0.003*[#   6]
    |psi|^2 = 0.507
==== e(   7) =    21.70609 eV ==== 
     psi = 0.427*[#   1]+0.003*[#   3]+0.003*[#   4]+0.003*[#   6]
    |psi|^2 = 0.438
==== e(   8) =    25.56856 eV ==== 

    |psi|^2 = 0.001

 k =  -0.0833333333 -0.0833333333  0.7500000000
==== e(   1) =     8.78444 eV ==== 
     psi = 0.485*[#   2]+0.485*[#   5]+0.017*[#   1]+0.004*[#   3]+0.004*[#   4]
          +0.004*[#   6]
    |psi|^2 = 0.998
==== e(   2) =     8.80280 eV ==== 
     psi = 0.492*[#   2]+0.492*[#   5]+0.005*[#   3]+0.005*[#   4]+0.005*[#   6]
          
    |psi|^2 = 1.000
==== e(   3) =    11.53586 eV ==== 
     psi = 0.329*[#   3]+0.329*[#   4]+0.329*[#   6]+0.006*[#   1]+0.003*[#   2]
          +0.003*[#   5]
    |psi|^2 = 0.999
==== e(   4) =    12.12779 eV ==== 
     psi = 0.328*[#   3]+0.328*[#   4]+0.328*[#   6]+0.008*[#   2]+0.008*[#   5]
          
    |psi|^2 = 0.998
==== e(   5) =    12.74098 eV ==== 
     psi = 0.330*[#   3]+0.330*[#   4]+0.330*[#   6]+0.003*[#   1]+0.003*[#   2]
          +0.003*[#   5]
    |psi|^2 = 0.999
==== e(   6) =    17.97979 eV ==== 
     psi = 0.750*[#   1]+0.007*[#   2]+0.007*[#   5]+0.003*[#   3]+0.003*[#   4]
          +0.003*[#   6]
    |psi|^2 = 0.774
==== e(   7) =    23.62438 eV ==== 

    |psi|^2 = 0.002
==== e(   8) =    24.00593 eV ==== 
     psi = 0.175*[#   1]+0.001*[#   3]+0.001*[#   4]+0.001*[#   6]
    |psi|^2 = 0.179

 k =  -0.0833333333  0.8333333333 -0.1666666667
==== e(   1) =     8.67912 eV ==== 
     psi = 0.488*[#   2]+0.488*[#   5]+0.007*[#   3]+0.007*[#   4]+0.007*[#   6]
          +0.002*[#   1]
    |psi|^2 = 0.999
==== e(   2) =     8.75131 eV ==== 
     psi = 0.496*[#   2]+0.496*[#   5]+0.002*[#   3]+0.002*[#   4]+0.002*[#   6]
          
    |psi|^2 = 0.998
==== e(   3) =    11.52496 eV ==== 
     psi = 0.330*[#   3]+0.330*[#   4]+0.330*[#   6]+0.008*[#   1]+0.001*[#   2]
          +0.001*[#   5]
    |psi|^2 = 0.999
==== e(   4) =    12.34503 eV ==== 
     psi = 0.325*[#   3]+0.325*[#   4]+0.325*[#   6]+0.010*[#   2]+0.010*[#   5]
          +0.003*[#   1]
    |psi|^2 = 0.998
==== e(   5) =    12.84692 eV ==== 
     psi = 0.331*[#   3]+0.331*[#   4]+0.331*[#   6]+0.003*[#   2]+0.003*[#   5]
          
    |psi|^2 = 0.998
==== e(   6) =    20.14104 eV ==== 

    |psi|^2 = 0.003
==== e(   7) =    21.28033 eV ==== 
     psi = 0.690*[#   1]+0.003*[#   3]+0.003*[#   4]+0.003*[#   6]
    |psi|^2 = 0.701
==== e(   8) =    23.46876 eV ==== 
     psi = 0.226*[#   1]+0.001*[#   3]+0.001*[#   4]+0.001*[#   6]
    |psi|^2 = 0.229

 k =   0.0000000000  0.0000000000  0.7500000000
==== e(   1) =     8.66420 eV ==== 
     psi = 0.489*[#   2]+0.489*[#   5]+0.021*[#   1]
    |psi|^2 = 0.999
==== e(   2) =     8.72168 eV ==== 
     psi = 0.500*[#   2]+0.500*[#   5]
    |psi|^2 = 1.000
==== e(   3) =    12.09864 eV ==== 
     psi = 0.333*[#   3]+0.333*[#   4]+0.333*[#   6]
    |psi|^2 = 0.998
==== e(   4) =    12.09864 eV ==== 
     psi = 0.333*[#   3]+0.333*[#   4]+0.333*[#   6]
    |psi|^2 = 0.998
==== e(   5) =    12.55028 eV ==== 
     psi = 0.333*[#   3]+0.333*[#   4]+0.333*[#   6]
    |psi|^2 = 0.999
==== e(   6) =    17.64375 eV ==== 
     psi = 0.897*[#   1]+0.010*[#   2]+0.010*[#   5]
    |psi|^2 = 0.918
==== e(   7) =    24.82531 eV ==== 

    |psi|^2 = 0.001
==== e(   8) =    24.82531 eV ==== 

    |psi|^2 = 0.001

 k =   0.0000000000 -0.0833333333  0.8333333333
==== e(   1) =     8.49041 eV ==== 
     psi = 0.497*[#   2]+0.497*[#   5]+0.002*[#   1]+0.001*[#   3]+0.001*[#   4]
          +0.001*[#   6]
    |psi|^2 = 1.000
==== e(   2) =     8.51685 eV ==== 
     psi = 0.499*[#   2]+0.499*[#   5]+0.001*[#   1]
    |psi|^2 = 0.999
==== e(   3) =    12.24450 eV ==== 
     psi = 0.333*[#   3]+0.333*[#   4]+0.333*[#   6]
    |psi|^2 = 0.998
==== e(   4) =    12.38199 eV ==== 
     psi = 0.330*[#   3]+0.330*[#   4]+0.330*[#   6]+0.004*[#   1]+0.002*[#   2]
          +0.002*[#   5]
    |psi|^2 = 0.999
==== e(   5) =    12.87140 eV ==== 
     psi = 0.333*[#   3]+0.333*[#   4]+0.333*[#   6]
    |psi|^2 = 0.999
==== e(   6) =    19.90830 eV ==== 
     psi = 0.593*[#   1]+0.001*[#   2]+0.001*[#   5]
    |psi|^2 = 0.597
==== e(   7) =    22.66281 eV ==== 
     psi = 0.233*[#   1]+0.001*[#   3]+0.001*[#   4]+0.001*[#   6]
    |psi|^2 = 0.236
==== e(   8) =    23.92421 eV ==== 

    |psi|^2 = 0.001

 k =  -0.0833333333  0.9166666667 -0.0833333333
==== e(   1) =     8.39613 eV ==== 
     psi = 0.499*[#   2]+0.499*[#   5]
    |psi|^2 = 0.999
==== e(   2) =     8.39613 eV ==== 
     psi = 0.499*[#   2]+0.499*[#   5]
    |psi|^2 = 0.999
==== e(   3) =    12.32850 eV ==== 
     psi = 0.332*[#   3]+0.332*[#   4]+0.332*[#   6]+0.004*[#   1]
    |psi|^2 = 0.999
==== e(   4) =    12.80230 eV ==== 
     psi = 0.332*[#   3]+0.332*[#   4]+0.332*[#   6]
    |psi|^2 = 0.999
==== e(   5) =    12.80230 eV ==== 
     psi = 0.332*[#   3]+0.332*[#   4]+0.332*[#   6]
    |psi|^2 = 0.999
==== e(   6) =    21.98383 eV ==== 

    |psi|^2 = 0.001
==== e(   7) =    21.98383 eV ==== 

    |psi|^2 = 0.001
==== e(   8) =    22.56195 eV ==== 
     psi = 0.750*[#   1]+0.001*[#   3]+0.001*[#   4]+0.001*[#   6]
    |psi|^2 = 0.754

 k =   0.0000000000  0.0000000000  0.9166666667
==== e(   1) =     8.27761 eV ==== 
     psi = 0.500*[#   2]+0.500*[#   5]
    |psi|^2 = 0.999
==== e(   2) =     8.28079 eV ==== 
     psi = 0.500*[#   2]+0.500*[#   5]
    |psi|^2 = 0.999
==== e(   3) =    12.78518 eV ==== 
     psi = 0.333*[#   3]+0.333*[#   4]+0.333*[#   6]
    |psi|^2 = 0.999
==== e(   4) =    12.78518 eV ==== 
     psi = 0.333*[#   3]+0.333*[#   4]+0.333*[#   6]
    |psi|^2 = 0.999
==== e(   5) =    12.85653 eV ==== 
     psi = 0.333*[#   3]+0.333*[#   4]+0.333*[#   6]
    |psi|^2 = 0.999
==== e(   6) =    21.70822 eV ==== 
     psi = 0.440*[#   1]
    |psi|^2 = 0.440
==== e(   7) =    22.96502 eV ==== 

    |psi|^2 = 0.001
==== e(   8) =    22.96502 eV ==== 

    |psi|^2 = 0.001

 k =   0.0000000000  0.0000000000  0.0833333333
==== e(   1) =     4.95537 eV ==== 
     psi = 0.997*[#   1]
    |psi|^2 = 0.997
==== e(   2) =    12.84002 eV ==== 
     psi = 0.333*[#   3]+0.333*[#   4]+0.333*[#   6]
    |psi|^2 = 1.000
==== e(   3) =    12.84002 eV ==== 
     psi = 0.333*[#   3]+0.333*[#   4]+0.333*[#   6]
    |psi|^2 = 1.000
==== e(   4) =    12.88900 eV ==== 
     psi = 0.333*[#   3]+0.333*[#   4]+0.333*[#   6]
    |psi|^2 = 1.000
==== e(   5) =    14.75455 eV ==== 
     psi = 0.500*[#   2]+0.500*[#   5]
    |psi|^2 = 0.999
==== e(   6) =    14.86794 eV ==== 
     psi = 0.500*[#   2]+0.500*[#   5]
    |psi|^2 = 1.000
==== e(   7) =    36.23620 eV ==== 

    |psi|^2 = 0.000
==== e(   8) =    36.93427 eV ==== 

    |psi|^2 = 0.000

 k =   0.0000000000 -0.0833333333  0.1666666667
==== e(   1) =     5.50935 eV ==== 
     psi = 0.992*[#   1]+0.001*[#   2]+0.001*[#   5]
    |psi|^2 = 0.997
==== e(   2) =    12.68155 eV ==== 
     psi = 0.333*[#   3]+0.333*[#   4]+0.333*[#   6]
    |psi|^2 = 0.999
==== e(   3) =    12.79649 eV ==== 
     psi = 0.328*[#   3]+0.328*[#   4]+0.328*[#   6]+0.007*[#   2]+0.007*[#   5]
          +0.003*[#   1]
    |psi|^2 = 0.999
==== e(   4) =    13.19200 eV ==== 
     psi = 0.333*[#   3]+0.333*[#   4]+0.333*[#   6]
    |psi|^2 = 1.000
==== e(   5) =    14.54637 eV ==== 
     psi = 0.493*[#   2]+0.493*[#   5]+0.004*[#   3]+0.004*[#   4]+0.004*[#   6]
          
    |psi|^2 = 0.999
==== e(   6) =    14.91639 eV ==== 
     psi = 0.498*[#   2]+0.498*[#   5]+0.002*[#   1]
    |psi|^2 = 1.000
==== e(   7) =    34.13297 eV ==== 

    |psi|^2 = 0.002
==== e(   8) =    36.10075 eV ==== 

    |psi|^2 = 0.001

 k =   0.0000000000 -0.1666666667  0.2500000000
==== e(   1) =     6.54816 eV ==== 
     psi = 0.958*[#   1]+0.009*[#   3]+0.009*[#   4]+0.009*[#   6]+0.006*[#   2]
          +0.006*[#   5]
    |psi|^2 = 0.997
==== e(   2) =    12.39322 eV ==== 
     psi = 0.333*[#   3]+0.333*[#   4]+0.333*[#   6]
    |psi|^2 = 0.999
==== e(   3) =    12.63551 eV ==== 
     psi = 0.288*[#   3]+0.288*[#   4]+0.288*[#   6]+0.050*[#   2]+0.050*[#   5]
          +0.032*[#   1]
    |psi|^2 = 0.997
==== e(   4) =    13.77484 eV ==== 
     psi = 0.333*[#   3]+0.333*[#   4]+0.333*[#   6]
    |psi|^2 = 0.999
==== e(   5) =    14.38868 eV ==== 
     psi = 0.448*[#   2]+0.448*[#   5]+0.034*[#   3]+0.034*[#   4]+0.034*[#   6]
          
    |psi|^2 = 0.998
==== e(   6) =    14.96632 eV ==== 
     psi = 0.494*[#   2]+0.494*[#   5]+0.006*[#   1]+0.002*[#   3]+0.002*[#   4]
          +0.002*[#   6]
    |psi|^2 = 0.999
==== e(   7) =    30.84220 eV ==== 
     psi = 0.001*[#   2]+0.001*[#   5]
    |psi|^2 = 0.005
==== e(   8) =    34.44850 eV ==== 

    |psi|^2 = 0.001

 k =   0.0000000000 -0.2500000000  0.3333333333
==== e(   1) =     7.88208 eV ==== 
     psi = 0.818*[#   1]+0.041*[#   3]+0.041*[#   4]+0.041*[#   6]+0.026*[#   2]
          +0.026*[#   5]
    |psi|^2 = 0.995
==== e(   2) =    12.07422 eV ==== 
     psi = 0.333*[#   3]+0.333*[#   4]+0.333*[#   6]
    |psi|^2 = 0.999
==== e(   3) =    12.43599 eV ==== 
     psi = 0.208*[#   3]+0.208*[#   4]+0.208*[#   6]+0.153*[#   1]+0.104*[#   2]
          +0.104*[#   5]
    |psi|^2 = 0.984
==== e(   4) =    14.42142 eV ==== 
     psi = 0.378*[#   2]+0.378*[#   5]+0.081*[#   3]+0.081*[#   4]+0.081*[#   6]
          
    |psi|^2 = 0.999
==== e(   5) =    14.51431 eV ==== 
     psi = 0.333*[#   3]+0.333*[#   4]+0.333*[#   6]
    |psi|^2 = 0.999
==== e(   6) =    15.03232 eV ==== 
     psi = 0.489*[#   2]+0.489*[#   5]+0.017*[#   1]+0.002*[#   3]+0.002*[#   4]
          +0.002*[#   6]
    |psi|^2 = 0.999
==== e(   7) =    27.27657 eV ==== 
     psi = 0.009*[#   1]+0.002*[#   2]+0.002*[#   3]+0.002*[#   4]+0.002*[#   5]
          +0.002*[#   6]
    |psi|^2 = 0.018
==== e(   8) =    32.82377 eV ==== 

    |psi|^2 = 0.001

 k =   0.0000000000 -0.3333333333  0.4166666667
==== e(   1) =     9.06016 eV ==== 
     psi = 0.462*[#   1]+0.123*[#   3]+0.123*[#   4]+0.123*[#   6]+0.079*[#   2]
          +0.079*[#   5]
    |psi|^2 = 0.990
==== e(   2) =    11.80923 eV ==== 
[...]
     psi = 0.332*[#   3]+0.332*[#   4]+0.332*[#   6]
    |psi|^2 = 0.996
==== e(   4) =    13.78276 eV ==== 
     psi = 0.227*[#   3]+0.227*[#   4]+0.227*[#   6]+0.154*[#   2]+0.154*[#   5]
          
    |psi|^2 = 0.991
==== e(   5) =    15.08299 eV ==== 
     psi = 0.333*[#   3]+0.333*[#   4]+0.333*[#   6]
    |psi|^2 = 0.999
==== e(   6) =    16.43158 eV ==== 
     psi = 0.543*[#   1]+0.192*[#   2]+0.192*[#   5]+0.009*[#   3]+0.009*[#   4]
          +0.009*[#   6]
    |psi|^2 = 0.952
==== e(   7) =    24.89570 eV ==== 
     psi = 0.059*[#   1]+0.005*[#   3]+0.005*[#   4]+0.005*[#   6]+0.002*[#   2]
          +0.002*[#   5]
    |psi|^2 = 0.079
==== e(   8) =    28.96823 eV ==== 
     psi = 0.001*[#   3]+0.001*[#   4]+0.001*[#   6]
    |psi|^2 = 0.004

 k =   0.0000000000 -0.2500000000  0.6666666667
==== e(   1) =    10.50573 eV ==== 
     psi = 0.287*[#   2]+0.287*[#   5]+0.105*[#   3]+0.105*[#   4]+0.105*[#   6]
          +0.104*[#   1]
    |psi|^2 = 0.992
==== e(   2) =    11.58776 eV ==== 
     psi = 0.434*[#   2]+0.434*[#   5]+0.019*[#   1]+0.007*[#   3]+0.007*[#   4]
          +0.007*[#   6]
    |psi|^2 = 0.907
==== e(   3) =    12.70822 eV ==== 
     psi = 0.332*[#   3]+0.332*[#   4]+0.332*[#   6]
    |psi|^2 = 0.996
==== e(   4) =    13.88167 eV ==== 
     psi = 0.197*[#   3]+0.197*[#   4]+0.197*[#   6]+0.195*[#   2]+0.195*[#   5]
          +0.013*[#   1]
    |psi|^2 = 0.995
==== e(   5) =    15.57302 eV ==== 
     psi = 0.333*[#   3]+0.333*[#   4]+0.333*[#   6]
    |psi|^2 = 1.000
==== e(   6) =    17.82448 eV ==== 
     psi = 0.297*[#   1]+0.077*[#   2]+0.077*[#   5]+0.006*[#   3]+0.006*[#   4]
          +0.006*[#   6]
    |psi|^2 = 0.468
==== e(   7) =    22.12437 eV ==== 
     psi = 0.545*[#   1]+0.018*[#   3]+0.018*[#   4]+0.018*[#   6]+0.006*[#   2]
          +0.006*[#   5]
    |psi|^2 = 0.612
==== e(   8) =    28.15921 eV ==== 
     psi = 0.001*[#   3]+0.001*[#   4]+0.001*[#   6]
    |psi|^2 = 0.004

 k =  -0.0833333333 -0.0833333333  0.5833333333
==== e(   1) =     9.98333 eV ==== 
     psi = 0.412*[#   1]+0.259*[#   2]+0.259*[#   5]+0.021*[#   3]+0.021*[#   4]
          +0.021*[#   6]
    |psi|^2 = 0.991
==== e(   2) =    11.76388 eV ==== 
     psi = 0.431*[#   2]+0.431*[#   5]+0.043*[#   3]+0.043*[#   4]+0.043*[#   6]
          
    |psi|^2 = 0.991
==== e(   3) =    13.06366 eV ==== 
     psi = 0.314*[#   3]+0.314*[#   4]+0.314*[#   6]+0.023*[#   2]+0.023*[#   5]
          +0.004*[#   1]
    |psi|^2 = 0.992
==== e(   4) =    13.69284 eV ==== 
     psi = 0.288*[#   3]+0.288*[#   4]+0.288*[#   6]+0.065*[#   2]+0.065*[#   5]
          
    |psi|^2 = 0.995
==== e(   5) =    14.81269 eV ==== 
     psi = 0.316*[#   3]+0.316*[#   4]+0.316*[#   6]+0.024*[#   2]+0.024*[#   5]
          +0.003*[#   1]
    |psi|^2 = 0.999
==== e(   6) =    16.36551 eV ==== 
     psi = 0.554*[#   1]+0.194*[#   2]+0.194*[#   5]+0.013*[#   3]+0.013*[#   4]
          +0.013*[#   6]
    |psi|^2 = 0.981
==== e(   7) =    26.91461 eV ==== 
     psi = 0.002*[#   2]+0.002*[#   3]+0.002*[#   4]+0.002*[#   5]+0.002*[#   6]
          
    |psi|^2 = 0.010
==== e(   8) =    27.19228 eV ==== 
     psi = 0.023*[#   1]+0.003*[#   3]+0.003*[#   4]+0.003*[#   6]
    |psi|^2 = 0.031

 k =  -0.0833333333 -0.1666666667  0.6666666667
==== e(   1) =    10.61512 eV ==== 
     psi = 0.343*[#   2]+0.343*[#   5]+0.160*[#   1]+0.045*[#   3]+0.045*[#   4]
          +0.045*[#   6]
    |psi|^2 = 0.980
==== e(   2) =    11.35066 eV ==== 
     psi = 0.436*[#   2]+0.436*[#   5]+0.033*[#   3]+0.033*[#   4]+0.033*[#   6]
          +0.007*[#   1]
    |psi|^2 = 0.976
==== e(   3) =    12.91254 eV ==== 
     psi = 0.310*[#   3]+0.310*[#   4]+0.310*[#   6]+0.030*[#   2]+0.030*[#   5]
          +0.001*[#   1]
    |psi|^2 = 0.991
==== e(   4) =    14.04956 eV ==== 
     psi = 0.272*[#   3]+0.272*[#   4]+0.272*[#   6]+0.087*[#   2]+0.087*[#   5]
          +0.004*[#   1]
    |psi|^2 = 0.994
==== e(   5) =    15.24574 eV ==== 
     psi = 0.311*[#   3]+0.311*[#   4]+0.311*[#   6]+0.027*[#   2]+0.027*[#   5]
          +0.012*[#   1]
    |psi|^2 = 0.998
==== e(   6) =    17.84404 eV ==== 
     psi = 0.608*[#   1]+0.072*[#   2]+0.072*[#   5]+0.020*[#   3]+0.020*[#   4]
          +0.020*[#   6]
    |psi|^2 = 0.812
==== e(   7) =    23.75898 eV ==== 
     psi = 0.153*[#   1]+0.007*[#   3]+0.007*[#   4]+0.007*[#   6]+0.003*[#   2]
          +0.003*[#   5]
    |psi|^2 = 0.180
==== e(   8) =    26.07795 eV ==== 
     psi = 0.041*[#   1]+0.003*[#   3]+0.003*[#   4]+0.003*[#   6]
    |psi|^2 = 0.050

 k =  -0.0833333333  0.7500000000 -0.2500000000
==== e(   1) =    10.80821 eV ==== 
     psi = 0.368*[#   2]+0.368*[#   5]+0.070*[#   3]+0.070*[#   4]+0.070*[#   6]
          +0.043*[#   1]
    |psi|^2 = 0.992
==== e(   2) =    11.24673 eV ==== 
     psi = 0.452*[#   2]+0.452*[#   5]+0.009*[#   3]+0.009*[#   4]+0.009*[#   6]
          
    |psi|^2 = 0.930
==== e(   3) =    12.81451 eV ==== 
     psi = 0.313*[#   3]+0.313*[#   4]+0.313*[#   6]+0.022*[#   2]+0.022*[#   5]
          +0.012*[#   1]
    |psi|^2 = 0.995
==== e(   4) =    14.15123 eV ==== 
     psi = 0.260*[#   3]+0.260*[#   4]+0.260*[#   6]+0.100*[#   2]+0.100*[#   5]
          +0.017*[#   1]
    |psi|^2 = 0.997
==== e(   5) =    15.45436 eV ==== 
     psi = 0.319*[#   3]+0.319*[#   4]+0.319*[#   6]+0.018*[#   2]+0.018*[#   5]
          
    |psi|^2 = 0.993
==== e(   6) =    19.31457 eV ==== 
     psi = 0.029*[#   2]+0.029*[#   5]+0.006*[#   3]+0.006*[#   4]+0.006*[#   6]
          
    |psi|^2 = 0.075
==== e(   7) =    21.70353 eV ==== 
     psi = 0.833*[#   1]+0.021*[#   3]+0.021*[#   4]+0.021*[#   6]+0.007*[#   2]
          +0.007*[#   5]
    |psi|^2 = 0.909
==== e(   8) =    25.69835 eV ==== 
     psi = 0.068*[#   1]+0.003*[#   3]+0.003*[#   4]+0.003*[#   6]
    |psi|^2 = 0.077

 k =  -0.1666666667  0.8333333333 -0.2500000000
==== e(   1) =    10.98173 eV ==== 
     psi = 0.427*[#   2]+0.427*[#   5]+0.028*[#   1]+0.027*[#   3]+0.027*[#   4]
          +0.027*[#   6]
    |psi|^2 = 0.962
==== e(   2) =    11.08052 eV ==== 
     psi = 0.439*[#   2]+0.439*[#   5]+0.033*[#   3]+0.033*[#   4]+0.033*[#   6]
          
    |psi|^2 = 0.977
==== e(   3) =    12.70620 eV ==== 
     psi = 0.314*[#   3]+0.314*[#   4]+0.314*[#   6]+0.026*[#   1]+0.013*[#   2]
          +0.013*[#   5]
    |psi|^2 = 0.995
==== e(   4) =    14.62146 eV ==== 
     psi = 0.294*[#   3]+0.294*[#   4]+0.294*[#   6]+0.054*[#   2]+0.054*[#   5]
          
    |psi|^2 = 0.991
==== e(   5) =    15.14775 eV ==== 
     psi = 0.302*[#   3]+0.302*[#   4]+0.302*[#   6]+0.039*[#   2]+0.039*[#   5]
          +0.007*[#   1]
    |psi|^2 = 0.992
==== e(   6) =    19.95987 eV ==== 
     psi = 0.311*[#   1]+0.020*[#   2]+0.020*[#   5]+0.013*[#   3]+0.013*[#   4]
          +0.013*[#   6]
    |psi|^2 = 0.390
==== e(   7) =    22.64461 eV ==== 
     psi = 0.006*[#   2]+0.006*[#   5]+0.006*[#   3]+0.006*[#   4]+0.006*[#   6]
          
    |psi|^2 = 0.029
==== e(   8) =    23.48323 eV ==== 
     psi = 0.601*[#   1]+0.010*[#   3]+0.010*[#   4]+0.010*[#   6]
    |psi|^2 = 0.630

 k =   0.5833333333 -0.5833333333  0.4166666667
==== e(   1) =    11.22601 eV ==== 
     psi = 0.273*[#   3]+0.273*[#   4]+0.273*[#   6]+0.123*[#   1]
    |psi|^2 = 0.942
==== e(   2) =    11.33711 eV ==== 
     psi = 0.317*[#   3]+0.317*[#   4]+0.317*[#   6]+0.015*[#   2]+0.015*[#   5]
          
    |psi|^2 = 0.983
==== e(   3) =    11.33711 eV ==== 
     psi = 0.317*[#   3]+0.317*[#   4]+0.317*[#   6]+0.015*[#   2]+0.015*[#   5]
          
    |psi|^2 = 0.983
==== e(   4) =    15.08247 eV ==== 
     psi = 0.484*[#   2]+0.484*[#   5]+0.010*[#   3]+0.010*[#   4]+0.010*[#   6]
          
    |psi|^2 = 1.000
==== e(   5) =    15.08247 eV ==== 
     psi = 0.484*[#   2]+0.484*[#   5]+0.010*[#   3]+0.010*[#   4]+0.010*[#   6]
          
    |psi|^2 = 1.000
==== e(   6) =    19.14825 eV ==== 
     psi = 0.454*[#   1]+0.059*[#   3]+0.059*[#   4]+0.059*[#   6]
    |psi|^2 = 0.632
==== e(   7) =    24.11641 eV ==== 
     psi = 0.005*[#   3]+0.005*[#   4]+0.005*[#   6]
    |psi|^2 = 0.017
==== e(   8) =    24.11641 eV ==== 
     psi = 0.005*[#   3]+0.005*[#   4]+0.005*[#   6]
    |psi|^2 = 0.017

 k =   0.5000000000 -0.5000000000  0.4166666667
==== e(   1) =    11.23187 eV ==== 
     psi = 0.308*[#   3]+0.308*[#   4]+0.308*[#   6]+0.017*[#   1]+0.015*[#   2]
          +0.015*[#   5]
    |psi|^2 = 0.973
==== e(   2) =    11.30798 eV ==== 
     psi = 0.327*[#   3]+0.327*[#   4]+0.327*[#   6]
    |psi|^2 = 0.981
==== e(   3) =    11.54354 eV ==== 
     psi = 0.312*[#   3]+0.312*[#   4]+0.312*[#   6]
    |psi|^2 = 0.936
==== e(   4) =    15.09899 eV ==== 
     psi = 0.484*[#   2]+0.484*[#   5]+0.011*[#   3]+0.011*[#   4]+0.011*[#   6]
          
    |psi|^2 = 1.000
==== e(   5) =    15.13269 eV ==== 
     psi = 0.500*[#   2]+0.500*[#   5]
    |psi|^2 = 1.000
==== e(   6) =    20.84123 eV ==== 
     psi = 0.021*[#   3]+0.021*[#   4]+0.021*[#   6]
    |psi|^2 = 0.064
==== e(   7) =    22.03804 eV ==== 
     psi = 0.414*[#   1]+0.014*[#   3]+0.014*[#   4]+0.014*[#   6]
    |psi|^2 = 0.459
==== e(   8) =    23.86558 eV ==== 
     psi = 0.006*[#   3]+0.006*[#   4]+0.006*[#   6]
    |psi|^2 = 0.019

 k =   0.0000000000  0.0000000000  0.5833333333
==== e(   1) =     9.85649 eV ==== 
     psi = 0.442*[#   1]+0.276*[#   2]+0.276*[#   5]
    |psi|^2 = 0.994
==== e(   2) =    11.86635 eV ==== 
     psi = 0.497*[#   2]+0.497*[#   5]
    |psi|^2 = 0.994
==== e(   3) =    13.50946 eV ==== 
     psi = 0.331*[#   3]+0.331*[#   4]+0.331*[#   6]
    |psi|^2 = 0.994
==== e(   4) =    13.50946 eV ==== 
     psi = 0.331*[#   3]+0.331*[#   4]+0.331*[#   6]
    |psi|^2 = 0.994
==== e(   5) =    14.45624 eV ==== 
     psi = 0.333*[#   3]+0.333*[#   4]+0.333*[#   6]
    |psi|^2 = 1.000
==== e(   6) =    16.20058 eV ==== 
     psi = 0.549*[#   1]+0.224*[#   2]+0.224*[#   5]
    |psi|^2 = 0.996
==== e(   7) =    28.44665 eV ==== 
     psi = 0.002*[#   3]+0.002*[#   4]+0.002*[#   6]
    |psi|^2 = 0.006
==== e(   8) =    28.44665 eV ==== 
     psi = 0.002*[#   3]+0.002*[#   4]+0.002*[#   6]
    |psi|^2 = 0.006

 k =   0.0000000000 -0.0833333333  0.6666666667
==== e(   1) =    10.41249 eV ==== 
     psi = 0.382*[#   2]+0.382*[#   5]+0.203*[#   1]+0.007*[#   3]+0.007*[#   4]
          +0.007*[#   6]
    |psi|^2 = 0.989
==== e(   2) =    11.32587 eV ==== 
     psi = 0.482*[#   2]+0.482*[#   5]+0.009*[#   3]+0.009*[#   4]+0.009*[#   6]
          
    |psi|^2 = 0.992
==== e(   3) =    13.65121 eV ==== 
     psi = 0.331*[#   3]+0.331*[#   4]+0.331*[#   6]
    |psi|^2 = 0.993
==== e(   4) =    13.88378 eV ==== 
     psi = 0.309*[#   3]+0.309*[#   4]+0.309*[#   6]+0.031*[#   2]+0.031*[#   5]
          +0.004*[#   1]
    |psi|^2 = 0.991
==== e(   5) =    14.99924 eV ==== 
     psi = 0.333*[#   3]+0.333*[#   4]+0.333*[#   6]
    |psi|^2 = 0.999
==== e(   6) =    17.32766 eV ==== 
     psi = 0.739*[#   1]+0.101*[#   2]+0.101*[#   5]+0.004*[#   3]+0.004*[#   4]
          +0.004*[#   6]
    |psi|^2 = 0.954
==== e(   7) =    25.57178 eV ==== 
     psi = 0.033*[#   1]+0.004*[#   3]+0.004*[#   4]+0.004*[#   6]
    |psi|^2 = 0.046
==== e(   8) =    26.92549 eV ==== 
     psi = 0.003*[#   3]+0.003*[#   4]+0.003*[#   6]
    |psi|^2 = 0.008

 k =   0.0000000000 -0.1666666667  0.7500000000
==== e(   1) =    10.69834 eV ==== 
     psi = 0.433*[#   2]+0.433*[#   5]+0.051*[#   1]+0.023*[#   3]+0.023*[#   4]
          +0.023*[#   6]
    |psi|^2 = 0.986
==== e(   2) =    10.98638 eV ==== 
     psi = 0.476*[#   2]+0.476*[#   5]+0.007*[#   3]+0.007*[#   4]+0.007*[#   6]
          
    |psi|^2 = 0.972
==== e(   3) =    13.62999 eV ==== 
     psi = 0.331*[#   3]+0.331*[#   4]+0.331*[#   6]
    |psi|^2 = 0.993
==== e(   4) =    14.05228 eV ==== 
     psi = 0.287*[#   3]+0.287*[#   4]+0.287*[#   6]+0.054*[#   2]+0.054*[#   5]
          +0.028*[#   1]
    |psi|^2 = 0.996
==== e(   5) =    15.49282 eV ==== 
     psi = 0.333*[#   3]+0.333*[#   4]+0.333*[#   6]
    |psi|^2 = 0.999
==== e(   6) =    19.21918 eV ==== 
     psi = 0.436*[#   1]+0.031*[#   2]+0.031*[#   5]+0.005*[#   3]+0.005*[#   4]
          +0.005*[#   6]
    |psi|^2 = 0.514
==== e(   7) =    22.59498 eV ==== 
     psi = 0.432*[#   1]+0.011*[#   3]+0.011*[#   4]+0.011*[#   6]+0.004*[#   2]
          +0.004*[#   5]
    |psi|^2 = 0.474
==== e(   8) =    26.03552 eV ==== 
     psi = 0.002*[#   3]+0.002*[#   4]+0.002*[#   6]
    |psi|^2 = 0.007

 k =  -0.0833333333 -0.0833333333  0.7500000000
==== e(   1) =    10.61814 eV ==== 
     psi = 0.452*[#   2]+0.452*[#   5]+0.062*[#   1]+0.005*[#   3]+0.005*[#   4]
          +0.005*[#   6]
    |psi|^2 = 0.983
==== e(   2) =    10.92622 eV ==== 
     psi = 0.483*[#   2]+0.483*[#   5]+0.008*[#   3]+0.008*[#   4]+0.008*[#   6]
          
    |psi|^2 = 0.991
==== e(   3) =    13.73484 eV ==== 
     psi = 0.322*[#   3]+0.322*[#   4]+0.322*[#   6]+0.013*[#   1]+0.007*[#   2]
          +0.007*[#   5]
    |psi|^2 = 0.993
==== e(   4) =    14.46490 eV ==== 
     psi = 0.321*[#   3]+0.321*[#   4]+0.321*[#   6]+0.014*[#   2]+0.014*[#   5]
          
    |psi|^2 = 0.990
==== e(   5) =    15.26205 eV ==== 
     psi = 0.326*[#   3]+0.326*[#   4]+0.326*[#   6]+0.007*[#   1]+0.006*[#   2]
          +0.006*[#   5]
    |psi|^2 = 0.999
==== e(   6) =    19.03550 eV ==== 
     psi = 0.698*[#   1]+0.034*[#   2]+0.034*[#   5]+0.007*[#   3]+0.007*[#   4]
          +0.007*[#   6]
    |psi|^2 = 0.787
==== e(   7) =    24.32620 eV ==== 
     psi = 0.004*[#   3]+0.004*[#   4]+0.004*[#   6]+0.002*[#   2]+0.002*[#   5]
          
    |psi|^2 = 0.015
==== e(   8) =    24.56850 eV ==== 
     psi = 0.172*[#   1]+0.005*[#   3]+0.005*[#   4]+0.005*[#   6]
    |psi|^2 = 0.187

 k =  -0.0833333333  0.8333333333 -0.1666666667
==== e(   1) =    10.71756 eV ==== 
     psi = 0.474*[#   2]+0.474*[#   5]+0.011*[#   3]+0.011*[#   4]+0.011*[#   6]
          +0.008*[#   1]
    |psi|^2 = 0.989
==== e(   2) =    10.73538 eV ==== 
     psi = 0.482*[#   2]+0.482*[#   5]+0.003*[#   3]+0.003*[#   4]+0.003*[#   6]
          
    |psi|^2 = 0.975
==== e(   3) =    13.70513 eV ==== 
     psi = 0.322*[#   3]+0.322*[#   4]+0.322*[#   6]+0.024*[#   1]+0.003*[#   2]
          +0.003*[#   5]
    |psi|^2 = 0.997
==== e(   4) =    14.73724 eV ==== 
     psi = 0.317*[#   3]+0.317*[#   4]+0.317*[#   6]+0.017*[#   2]+0.017*[#   5]
          +0.007*[#   1]
    |psi|^2 = 0.992
==== e(   5) =    15.38127 eV ==== 
     psi = 0.328*[#   3]+0.328*[#   4]+0.328*[#   6]+0.006*[#   2]+0.006*[#   5]
          
    |psi|^2 = 0.995
==== e(   6) =    20.96602 eV ==== 
     psi = 0.010*[#   2]+0.010*[#   5]+0.002*[#   3]+0.002*[#   4]+0.002*[#   6]
          
    |psi|^2 = 0.028
==== e(   7) =    22.09211 eV ==== 
     psi = 0.685*[#   1]+0.011*[#   3]+0.011*[#   4]+0.011*[#   6]+0.004*[#   2]
          +0.004*[#   5]
    |psi|^2 = 0.727
==== e(   8) =    24.03503 eV ==== 
     psi = 0.203*[#   1]+0.005*[#   3]+0.005*[#   4]+0.005*[#   6]
    |psi|^2 = 0.218

 k =   0.0000000000  0.0000000000  0.7500000000
==== e(   1) =    10.47786 eV ==== 
     psi = 0.458*[#   2]+0.458*[#   5]+0.075*[#   1]
    |psi|^2 = 0.991
==== e(   2) =    10.87776 eV ==== 
     psi = 0.497*[#   2]+0.497*[#   5]
    |psi|^2 = 0.994
==== e(   3) =    14.40498 eV ==== 
     psi = 0.330*[#   3]+0.330*[#   4]+0.330*[#   6]
    |psi|^2 = 0.989
==== e(   4) =    14.40498 eV ==== 
     psi = 0.330*[#   3]+0.330*[#   4]+0.330*[#   6]
    |psi|^2 = 0.989
==== e(   5) =    15.05770 eV ==== 
     psi = 0.333*[#   3]+0.333*[#   4]+0.333*[#   6]
    |psi|^2 = 1.000
==== e(   6) =    18.65496 eV ==== 
     psi = 0.850*[#   1]+0.041*[#   2]+0.041*[#   5]
    |psi|^2 = 0.933
==== e(   7) =    25.27015 eV ==== 
     psi = 0.003*[#   3]+0.003*[#   4]+0.003*[#   6]
    |psi|^2 = 0.010
==== e(   8) =    25.27015 eV ==== 
     psi = 0.003*[#   3]+0.003*[#   4]+0.003*[#   6]
    |psi|^2 = 0.010

 k =   0.0000000000 -0.0833333333  0.8333333333
==== e(   1) =    10.47715 eV ==== 
     psi = 0.486*[#   2]+0.486*[#   5]+0.014*[#   1]
    |psi|^2 = 0.988
==== e(   2) =    10.57746 eV ==== 
     psi = 0.494*[#   2]+0.494*[#   5]+0.002*[#   3]+0.002*[#   4]+0.002*[#   6]
          
    |psi|^2 = 0.993
==== e(   3) =    14.61412 eV ==== 
     psi = 0.330*[#   3]+0.330*[#   4]+0.330*[#   6]
    |psi|^2 = 0.991
==== e(   4) =    14.75346 eV ==== 
     psi = 0.324*[#   3]+0.324*[#   4]+0.324*[#   6]+0.013*[#   1]+0.005*[#   2]
          +0.005*[#   5]
    |psi|^2 = 0.994
==== e(   5) =    15.42524 eV ==== 
     psi = 0.333*[#   3]+0.333*[#   4]+0.333*[#   6]
    |psi|^2 = 0.999
==== e(   6) =    20.61838 eV ==== 
     psi = 0.580*[#   1]+0.011*[#   2]+0.011*[#   5]+0.002*[#   3]+0.002*[#   4]
          +0.002*[#   6]
    |psi|^2 = 0.608
==== e(   7) =    23.18692 eV ==== 
     psi = 0.231*[#   1]+0.005*[#   3]+0.005*[#   4]+0.005*[#   6]+0.001*[#   2]
          +0.001*[#   5]
    |psi|^2 = 0.248
==== e(   8) =    24.27706 eV ==== 
     psi = 0.003*[#   3]+0.003*[#   4]+0.003*[#   6]
    |psi|^2 = 0.009

 k =  -0.0833333333  0.9166666667 -0.0833333333
==== e(   1) =    10.42947 eV ==== 
     psi = 0.494*[#   2]+0.494*[#   5]
    |psi|^2 = 0.991
==== e(   2) =    10.42947 eV ==== 
     psi = 0.494*[#   2]+0.494*[#   5]
    |psi|^2 = 0.991
==== e(   3) =    14.70420 eV ==== 
     psi = 0.328*[#   3]+0.328*[#   4]+0.328*[#   6]+0.013*[#   1]
    |psi|^2 = 0.996
==== e(   4) =    15.32248 eV ==== 
     psi = 0.331*[#   3]+0.331*[#   4]+0.331*[#   6]+0.001*[#   2]+0.001*[#   5]
          
    |psi|^2 = 0.996
==== e(   5) =    15.32248 eV ==== 
     psi = 0.331*[#   3]+0.331*[#   4]+0.331*[#   6]+0.001*[#   2]+0.001*[#   5]
          
    |psi|^2 = 0.996
==== e(   6) =    22.46824 eV ==== 
     psi = 0.002*[#   2]+0.002*[#   5]+0.001*[#   3]+0.001*[#   4]+0.001*[#   6]
          
    |psi|^2 = 0.009
==== e(   7) =    22.46824 eV ==== 
     psi = 0.002*[#   2]+0.002*[#   5]+0.001*[#   3]+0.001*[#   4]+0.001*[#   6]
          
    |psi|^2 = 0.009
==== e(   8) =    22.95756 eV ==== 
     psi = 0.732*[#   1]+0.005*[#   3]+0.005*[#   4]+0.005*[#   6]
    |psi|^2 = 0.748

 k =   0.0000000000  0.0000000000  0.9166666667
==== e(   1) =    10.30204 eV ==== 
     psi = 0.496*[#   2]+0.496*[#   5]+0.002*[#   1]
    |psi|^2 = 0.993
==== e(   2) =    10.32800 eV ==== 
     psi = 0.498*[#   2]+0.498*[#   5]
    |psi|^2 = 0.995
==== e(   3) =    15.30032 eV ==== 
     psi = 0.332*[#   3]+0.332*[#   4]+0.332*[#   6]
    |psi|^2 = 0.996
==== e(   4) =    15.30032 eV ==== 
     psi = 0.332*[#   3]+0.332*[#   4]+0.332*[#   6]
    |psi|^2 = 0.996
==== e(   5) =    15.41164 eV ==== 
     psi = 0.333*[#   3]+0.333*[#   4]+0.333*[#   6]
    |psi|^2 = 1.000
==== e(   6) =    22.07917 eV ==== 
     psi = 0.441*[#   1]+0.002*[#   2]+0.002*[#   5]
    |psi|^2 = 0.445
==== e(   7) =    23.18970 eV ==== 
     psi = 0.001*[#   3]+0.001*[#   4]+0.001*[#   6]
    |psi|^2 = 0.004
==== e(   8) =    23.18970 eV ==== 
     psi = 0.001*[#   3]+0.001*[#   4]+0.001*[#   6]
    |psi|^2 = 0.004

Lowdin Charges: 

     Atom #   1: total charge =   7.8888, s =  0.8333, p =  0.0000, d =  7.0555, 
                 spin up      =   5.1302, s =  0.3810, 
                 spin up      =   5.1302, p =  0.0000, pz=  0.0000, px=  0.0000, py=  0.0000, 
                 spin up      =   5.1302, d =  4.7493, dz2=  0.9770, dxz=  0.9317, dyz=  0.9317, dx2-y2=  0.9770, dxy=  0.9317, 
                 spin down    =   2.7586, s =  0.4524, 
                 spin down    =   2.7586, p =  0.0000, pz=  0.0000, px=  0.0000, py=  0.0000, 
                 spin down    =   2.7586, d =  2.3062, dz2=  0.3515, dxz=  0.5344, dyz=  0.5344, dx2-y2=  0.3515, dxy=  0.5344, 
                 polarization =   2.3716, s = -0.0714, p =  0.0000, d =  2.4430, 
     Spilling Parameter:   0.0139

     PROJWFC      :      0.74s CPU      0.71s WALL


   This run was terminated on:  21:23: 4  17Apr2021            

=------------------------------------------------------------------------------=
   JOB DONE.
=------------------------------------------------------------------------------=
