### Running on host: cl

     Program PWSCF v.6.7MaX starts on 17Apr2021 at 21:22:55 

     This program is part of the open-source Quantum ESPRESSO suite
     for quantum simulation of materials; please cite
         "P. Giannozzi et al., J. Phys.:Condens. Matter 21 395502 (2009);
         "P. Giannozzi et al., J. Phys.:Condens. Matter 29 465901 (2017);
          URL http://www.quantum-espresso.org", 
     in publications or presentations arising from this work. More details at
     http://www.quantum-espresso.org/quote

     Parallel version (MPI), running on     2 processors

     MPI processes distributed on     1 nodes
     R & G space division:  proc/nbgrp/npool/nimage =       2
     Reading input from pw.Fe.scf.in

     Current dimensions of program PWSCF are:
     Max number of different atomic species (ntypx) = 10
     Max number of k-points (npk) =  40000
     Max angular momentum in pseudopotentials (lmaxx) =  3
     file Fe.pbe-nd-rrkjus.UPF: wavefunction(s)  4S renormalized

     Subspace diagonalization in iterative solution of the eigenvalue problem:
     a serial algorithm will be used


     Parallelization info
     --------------------
     sticks:   dense  smooth     PW     G-vecs:    dense   smooth      PW
     Min         166      84     31                 1902      704     160
     Max         167      85     32                 1903      705     161
     Sum         333     169     63                 3805     1409     321



     bravais-lattice index     =            3
     lattice parameter (alat)  =       5.4200  a.u.
     unit-cell volume          =      79.6100 (a.u.)^3
     number of atoms/cell      =            1
     number of atomic types    =            1
     number of electrons       =         8.00
     number of Kohn-Sham states=            8
     kinetic-energy cutoff     =      25.0000  Ry
     charge density cutoff     =     200.0000  Ry
     scf convergence threshold =      1.0E-06
     mixing beta               =       0.7000
     number of iterations used =            8  plain     mixing
     Exchange-correlation=  SLA  PW   PBE  PBE
                           (   1   4   3   4   0   0   0)

     celldm(1)=   5.420000  celldm(2)=   0.000000  celldm(3)=   0.000000
     celldm(4)=   0.000000  celldm(5)=   0.000000  celldm(6)=   0.000000

     crystal axes: (cart. coord. in units of alat)
               a(1) = (   0.500000   0.500000   0.500000 )  
               a(2) = (  -0.500000   0.500000   0.500000 )  
               a(3) = (  -0.500000  -0.500000   0.500000 )  

     reciprocal axes: (cart. coord. in units 2 pi/alat)
               b(1) = (  1.000000  0.000000  1.000000 )  
               b(2) = ( -1.000000  1.000000  0.000000 )  
               b(3) = (  0.000000 -1.000000  1.000000 )  


     PseudoPot. # 1 for Fe read from file:
     /home/test/QE-2021/pseudo/Fe.pbe-nd-rrkjus.UPF
     MD5 check sum: 398036227a04b607635f6f5e8dfd8242
     Pseudo is Ultrasoft + core correction, Zval =  8.0
     Generated by new atomic code, or converted to UPF format
     Using radial grid of  957 points,  6 beta functions with: 
                l(1) =   0
                l(2) =   0
                l(3) =   1
                l(4) =   1
                l(5) =   2
                l(6) =   2
     Q(r) pseudized with 0 coefficients 


     atomic species   valence    mass     pseudopotential
        Fe             8.00     1.00000     Fe( 1.00)

     Starting magnetic structure 
     atomic species   magnetization
        Fe           0.600

     48 Sym. Ops., with inversion, found



   Cartesian axes

     site n.     atom                  positions (alat units)
         1           Fe  tau(   1) = (   0.0000000   0.0000000   0.0000000  )

     number of k points=    26  Marzari-Vanderbilt smearing, width (Ry)=  0.0100
                       cart. coord. in units 2pi/alat
        k(    1) = (   0.0000000   0.0000000   0.1250000), wk =   0.0117188
        k(    2) = (   0.0000000  -0.1250000   0.2500000), wk =   0.0468750
        k(    3) = (   0.0000000  -0.2500000   0.3750000), wk =   0.0468750
        k(    4) = (   0.0000000  -0.3750000   0.5000000), wk =   0.0468750
        k(    5) = (  -0.1250000   0.1250000   0.1250000), wk =   0.0156250
        k(    6) = (  -0.1250000  -0.1250000   0.3750000), wk =   0.0468750
        k(    7) = (  -0.1250000  -0.2500000   0.5000000), wk =   0.0937500
        k(    8) = (  -0.1250000   0.6250000  -0.3750000), wk =   0.0468750
        k(    9) = (  -0.2500000   0.2500000   0.1250000), wk =   0.0468750
        k(   10) = (  -0.2500000   0.7500000  -0.3750000), wk =   0.0468750
        k(   11) = (  -0.3750000   0.3750000   0.1250000), wk =   0.0468750
        k(   12) = (  -0.3750000   0.2500000   0.2500000), wk =   0.0468750
        k(   13) = (   0.5000000  -0.5000000   0.1250000), wk =   0.0234375
        k(   14) = (   0.5000000  -0.6250000   0.2500000), wk =   0.0937500
        k(   15) = (   0.3750000  -0.6250000   0.3750000), wk =   0.0156250
        k(   16) = (   0.0000000   0.0000000   0.3750000), wk =   0.0117188
        k(   17) = (   0.0000000  -0.1250000   0.5000000), wk =   0.0468750
        k(   18) = (   0.0000000  -0.2500000   0.6250000), wk =   0.0468750
        k(   19) = (  -0.1250000  -0.1250000   0.6250000), wk =   0.0468750
        k(   20) = (  -0.1250000   0.7500000  -0.2500000), wk =   0.0468750
        k(   21) = (   0.6250000  -0.6250000   0.3750000), wk =   0.0156250
        k(   22) = (   0.5000000  -0.5000000   0.3750000), wk =   0.0234375
        k(   23) = (   0.0000000   0.0000000   0.6250000), wk =   0.0117188
        k(   24) = (   0.0000000  -0.1250000   0.7500000), wk =   0.0468750
        k(   25) = (  -0.1250000   0.8750000  -0.1250000), wk =   0.0156250
        k(   26) = (   0.0000000   0.0000000   0.8750000), wk =   0.0117188

     Dense  grid:     3805 G-vectors     FFT dimensions: (  24,  24,  24)

     Smooth grid:     1409 G-vectors     FFT dimensions: (  15,  15,  15)

     Estimated max dynamical RAM per process >       9.26 MB

     Estimated total dynamical RAM >      18.52 MB

     Check: negative core charge=   -0.000022
     Generating pointlists ...
     new r_m :   0.3572 (alat units)  1.9362 (a.u.) for type    1

     Initial potential from superposition of free atoms

     starting charge    7.99937, renormalised to    8.00000
     Starting wfcs are    6 randomized atomic wfcs +    2 random wfcs

     total cpu time spent up to now is        0.4 secs

     Self-consistent Calculation

     iteration #  1     ecut=    25.00 Ry     beta= 0.70
     Davidson diagonalization with overlap
     ethr =  1.00E-02,  avg # of iterations =  4.5

     total cpu time spent up to now is        0.6 secs

     total energy              =     -55.65042917 Ry
     estimated scf accuracy    <       0.31699221 Ry

     total magnetization       =     2.94 Bohr mag/cell
     absolute magnetization    =     2.94 Bohr mag/cell

     iteration #  2     ecut=    25.00 Ry     beta= 0.70
     Davidson diagonalization with overlap
     ethr =  3.96E-03,  avg # of iterations =  2.0

     total cpu time spent up to now is        0.8 secs

     total energy              =     -55.73194955 Ry
     estimated scf accuracy    <       0.31258101 Ry

     total magnetization       =     2.56 Bohr mag/cell
     absolute magnetization    =     2.61 Bohr mag/cell

     iteration #  3     ecut=    25.00 Ry     beta= 0.70
     Davidson diagonalization with overlap
     ethr =  3.91E-03,  avg # of iterations =  1.2

     total cpu time spent up to now is        0.9 secs

     total energy              =     -55.79872145 Ry
     estimated scf accuracy    <       0.00256297 Ry

     total magnetization       =     2.58 Bohr mag/cell
     absolute magnetization    =     2.64 Bohr mag/cell

     iteration #  4     ecut=    25.00 Ry     beta= 0.70
     Davidson diagonalization with overlap
     ethr =  3.20E-05,  avg # of iterations =  4.8

     total cpu time spent up to now is        1.1 secs

     total energy              =     -55.80173890 Ry
     estimated scf accuracy    <       0.00014827 Ry

     total magnetization       =     2.40 Bohr mag/cell
     absolute magnetization    =     2.56 Bohr mag/cell

     iteration #  5     ecut=    25.00 Ry     beta= 0.70
     Davidson diagonalization with overlap
     ethr =  1.85E-06,  avg # of iterations =  5.4

     total cpu time spent up to now is        1.4 secs

     total energy              =     -55.80187590 Ry
     estimated scf accuracy    <       0.00002820 Ry

     total magnetization       =     2.36 Bohr mag/cell
     absolute magnetization    =     2.53 Bohr mag/cell

     iteration #  6     ecut=    25.00 Ry     beta= 0.70
     Davidson diagonalization with overlap
     ethr =  3.52E-07,  avg # of iterations =  1.8

     total cpu time spent up to now is        1.5 secs

     total energy              =     -55.80183294 Ry
     estimated scf accuracy    <       0.00001338 Ry

     total magnetization       =     2.34 Bohr mag/cell
     absolute magnetization    =     2.51 Bohr mag/cell

     iteration #  7     ecut=    25.00 Ry     beta= 0.70
     Davidson diagonalization with overlap
     ethr =  1.67E-07,  avg # of iterations =  2.7

     total cpu time spent up to now is        1.7 secs

     total energy              =     -55.80194045 Ry
     estimated scf accuracy    <       0.00000217 Ry

     total magnetization       =     2.30 Bohr mag/cell
     absolute magnetization    =     2.46 Bohr mag/cell

     iteration #  8     ecut=    25.00 Ry     beta= 0.70
     Davidson diagonalization with overlap
     ethr =  2.72E-08,  avg # of iterations =  3.2

     total cpu time spent up to now is        1.9 secs

     total energy              =     -55.80194546 Ry
     estimated scf accuracy    <       0.00000204 Ry

     total magnetization       =     2.29 Bohr mag/cell
     absolute magnetization    =     2.45 Bohr mag/cell

     iteration #  9     ecut=    25.00 Ry     beta= 0.70
     Davidson diagonalization with overlap
     ethr =  2.55E-08,  avg # of iterations =  1.5

     Magnetic moment per site:
     atom:    1    charge:    6.4869    magn:    2.3624    constr:    0.0000

     total cpu time spent up to now is        2.0 secs

     End of self-consistent calculation

 ------ SPIN UP ------------


          k = 0.0000 0.0000 0.1250 (   169 PWs)   bands (ev):

     5.0562  10.6184  10.6184  10.7015  11.6125  11.7994  35.6555  36.9547

          k = 0.0000-0.1250 0.2500 (   168 PWs)   bands (ev):

     6.2270  10.3654  10.5463  11.2896  11.3949  11.8938  31.3301  34.6239

          k = 0.0000-0.2500 0.3750 (   169 PWs)   bands (ev):

     7.8226   9.9888  10.6123  11.6165  12.0818  12.2548  25.6439  32.2783

          k = 0.0000-0.3750 0.5000 (   168 PWs)   bands (ev):

     8.2418   9.7331  11.3267  11.7623  13.0308  13.5613  20.9187  30.9400

          k =-0.1250 0.1250 0.1250 (   171 PWs)   bands (ev):

     5.6618  10.4243  10.4243  11.1898  11.6849  11.6849  33.8160  33.8161

          k =-0.1250-0.1250 0.3750 (   167 PWs)   bands (ev):

     7.6471  10.1452  10.3617  11.2942  11.9654  12.2993  28.5959  29.5405

          k =-0.1250-0.2500 0.5000 (   170 PWs)   bands (ev):

     8.6470   9.8634  10.4242  11.5885  12.3381  14.0499  23.4912  27.3552

          k =-0.1250 0.6250-0.3750 (   170 PWs)   bands (ev):

     8.6669   9.8628  10.5762  11.6819  12.6950  16.0949  20.1166  26.6748

          k =-0.2500 0.2500 0.1250 (   167 PWs)   bands (ev):

     7.2259  10.0365  10.2371  11.6371  11.8001  12.1704  28.5112  31.5428

          k =-0.2500 0.7500-0.3750 (   167 PWs)   bands (ev):

     9.3375   9.5685  10.0960  11.8814  12.3196  17.2742  21.6299  22.8640

          k =-0.3750 0.3750 0.1250 (   170 PWs)   bands (ev):

     8.3169   9.7053  11.0287  11.7825  11.8894  13.5719  23.1096  29.8821

          k =-0.3750 0.2500 0.2500 (   170 PWs)   bands (ev):

     8.6616   9.7668   9.9761  11.7158  11.9256  13.7650  26.0645  26.8183

          k = 0.5000-0.5000 0.1250 (   170 PWs)   bands (ev):

     8.3597   9.5781  11.8390  11.9258  12.0001  15.0075  20.0038  29.2724

          k = 0.5000-0.6250 0.2500 (   167 PWs)   bands (ev):

     8.9687   9.6162  10.6039  11.8518  12.0254  16.2229  21.4535  25.2813

          k = 0.3750-0.6250 0.3750 (   161 PWs)   bands (ev):

     9.2759   9.9700   9.9700  11.9823  11.9823  19.7138  19.7138  22.0401

          k = 0.0000 0.0000 0.3750 (   164 PWs)   bands (ev):

     7.2505  10.6495  10.7684  10.7684  11.3019  12.2469  31.4373  32.4563

          k = 0.0000-0.1250 0.5000 (   169 PWs)   bands (ev):

     8.5106   9.9389  10.6365  11.2560  12.1437  13.1264  26.4974  29.9052

          k = 0.0000-0.2500 0.6250 (   171 PWs)   bands (ev):

     8.7554   9.8912  10.4482  11.4490  12.9532  15.6532  21.4525  28.3217

          k =-0.1250-0.1250 0.6250 (   171 PWs)   bands (ev):

     9.0704   9.3433  10.7099  11.6408  12.5438  15.5062  24.4098  24.9781

          k =-0.1250 0.7500-0.2500 (   163 PWs)   bands (ev):

     9.0037   9.3642  10.5272  11.9345  12.7684  18.5186  20.6204  24.0199

          k = 0.6250-0.6250 0.3750 (   165 PWs)   bands (ev):

     9.6045   9.6045   9.7990  11.9088  11.9088  16.1869  24.4533  24.4533

          k = 0.5000-0.5000 0.3750 (   162 PWs)   bands (ev):

     9.5007   9.5729  10.2224  11.9419  11.9492  19.0192  20.7635  23.8998

          k = 0.0000 0.0000 0.6250 (   168 PWs)   bands (ev):

     8.8639   9.2904  11.5101  11.5101  12.1764  14.8705  27.0254  27.0254

          k = 0.0000-0.1250 0.7500 (   168 PWs)   bands (ev):

     8.7429   8.8687  11.6403  11.9085  12.8459  17.9879  22.6723  25.2473

          k =-0.1250 0.8750-0.1250 (   167 PWs)   bands (ev):

     8.6065   8.6065  11.7429  12.6991  12.6991  21.3684  21.3684  22.4302

          k = 0.0000 0.0000 0.8750 (   172 PWs)   bands (ev):

     8.3525   8.3563  12.6608  12.6608  12.8121  20.7679  23.2795  23.2795

 ------ SPIN DOWN ----------


          k = 0.0000 0.0000 0.1250 (   169 PWs)   bands (ev):

     5.1316  12.8383  12.8383  12.9461  14.6589  14.9113  35.5529  36.8173

          k = 0.0000-0.1250 0.2500 (   168 PWs)   bands (ev):

     6.3324  12.5210  12.7091  13.6003  14.3024  15.0169  31.7629  34.7251

          k = 0.0000-0.2500 0.3750 (   169 PWs)   bands (ev):

     8.2873  12.0571  12.4098  14.3597  14.6984  15.1309  26.4744  32.3748

          k = 0.0000-0.3750 0.5000 (   168 PWs)   bands (ev):

     9.5780  11.7462  12.9088  14.5685  15.4667  15.6067  22.2251  30.9930

          k =-0.1250 0.1250 0.1250 (   171 PWs)   bands (ev):

     5.7457  12.6027  12.6027  13.4759  14.7434  14.7434  34.0057  34.0057

          k =-0.1250-0.1250 0.3750 (   167 PWs)   bands (ev):

     7.9122  12.2970  12.4053  14.0210  14.4369  15.2367  29.2409  30.0840

          k =-0.1250-0.2500 0.5000 (   170 PWs)   bands (ev):

     9.6775  11.8487  12.2272  14.2668  15.1140  16.1533  24.4489  27.9562

          k =-0.1250 0.6250-0.3750 (   170 PWs)   bands (ev):

    10.2274  11.8534  12.2733  14.4218  15.3338  17.4824  21.4978  27.2590

          k =-0.2500 0.2500 0.1250 (   167 PWs)   bands (ev):

     7.4142  12.1169  12.2709  14.5023  14.5926  14.9001  29.1260  31.8461

          k =-0.2500 0.7500-0.3750 (   167 PWs)   bands (ev):

    10.9183  11.4503  11.9393  14.5533  15.0292  18.7140  22.6918  23.6863

          k =-0.3750 0.3750 0.1250 (   170 PWs)   bands (ev):

     9.2673  11.6995  12.3226  14.6837  15.0410  15.7538  24.1142  30.1560

          k =-0.3750 0.2500 0.2500 (   170 PWs)   bands (ev):

     9.2135  11.7135  11.8190  14.6703  15.0313  15.9364  26.8010  27.4447

          k = 0.5000-0.5000 0.1250 (   170 PWs)   bands (ev):

     9.8093  11.5398  13.0287  14.7540  15.1024  16.5761  21.4619  29.5166

          k = 0.5000-0.6250 0.2500 (   167 PWs)   bands (ev):

    10.4090  11.4811  12.0025  14.8086  15.1013  17.7930  22.5450  25.9353

          k = 0.3750-0.6250 0.3750 (   161 PWs)   bands (ev):

    11.0059  11.5751  11.5751  14.9853  14.9853  20.8336  20.8336  22.9523

          k = 0.0000 0.0000 0.3750 (   164 PWs)   bands (ev):

     7.4333  12.9262  12.9262  13.3591  13.6269  15.3163  31.8410  33.0218

          k = 0.0000-0.1250 0.5000 (   169 PWs)   bands (ev):

     9.1593  12.2127  12.7599  13.6106  14.5694  15.6951  27.2739  30.5066

          k = 0.0000-0.2500 0.6250 (   171 PWs)   bands (ev):

    10.3202  11.7748  12.5331  13.9476  15.5161  17.1640  22.5856  28.8603

          k =-0.1250-0.1250 0.6250 (   171 PWs)   bands (ev):

    10.4266  11.5011  12.8243  13.9981  15.0734  17.1812  25.3023  25.6511

          k =-0.1250 0.7500-0.2500 (   163 PWs)   bands (ev):

    10.9192  11.2696  12.5570  14.3557  15.3073  19.6314  21.7387  24.7351

          k = 0.6250-0.6250 0.3750 (   165 PWs)   bands (ev):

    10.7595  11.4021  11.4021  15.0308  15.0308  17.8739  25.2177  25.2177

          k = 0.5000-0.5000 0.3750 (   162 PWs)   bands (ev):

    11.0736  11.3135  11.6770  15.0634  15.1351  20.1419  21.8571  24.6680

          k = 0.0000 0.0000 0.6250 (   168 PWs)   bands (ev):

    10.1567  11.5928  13.7087  13.7087  14.6266  16.6346  27.5915  27.5915

          k = 0.0000-0.1250 0.7500 (   168 PWs)   bands (ev):

    10.6253  10.9360  13.8870  14.1801  15.3916  19.0365  23.4327  25.7061

          k =-0.1250 0.8750-0.1250 (   167 PWs)   bands (ev):

    10.6314  10.6314  13.9616  15.1852  15.1852  22.0799  22.0799  22.9987

          k = 0.0000 0.0000 0.8750 (   172 PWs)   bands (ev):

    10.3551  10.4200  15.1277  15.1277  15.3598  21.2895  23.5562  23.5562

     the Fermi energy is    12.9191 ev

!    total energy              =     -55.80194637 Ry
     estimated scf accuracy    <       0.00000021 Ry
     smearing contrib. (-TS)   =       0.00010259 Ry
     internal energy E=F+TS    =     -55.80204896 Ry

     The total energy is F=E-TS. E is the sum of the following terms:
     one-electron contribution =       6.89041588 Ry
     hartree contribution      =       6.71685306 Ry
     xc contribution           =     -26.43681954 Ry
     ewald contribution        =     -42.97249836 Ry

     total magnetization       =     2.29 Bohr mag/cell
     absolute magnetization    =     2.45 Bohr mag/cell

     convergence has been achieved in   9 iterations

     Writing output data file /tmp/QE/fe.save/

     init_run     :      0.23s CPU      0.19s WALL (       1 calls)
     electrons    :      2.50s CPU      1.68s WALL (       1 calls)

     Called by init_run:
     wfcinit      :      0.05s CPU      0.04s WALL (       1 calls)
     potinit      :      0.01s CPU      0.01s WALL (       1 calls)
     hinit0       :      0.17s CPU      0.13s WALL (       1 calls)

     Called by electrons:
     c_bands      :      1.77s CPU      1.22s WALL (       9 calls)
     sum_band     :      0.46s CPU      0.29s WALL (       9 calls)
     v_of_rho     :      0.17s CPU      0.11s WALL (      10 calls)
     newd         :      0.08s CPU      0.06s WALL (      10 calls)
     mix_rho      :      0.01s CPU      0.01s WALL (       9 calls)

     Called by c_bands:
     init_us_2    :      0.06s CPU      0.04s WALL (     988 calls)
     cegterg      :      1.62s CPU      1.12s WALL (     468 calls)

     Called by *egterg:
     cdiaghg      :      0.31s CPU      0.22s WALL (    1872 calls)
     h_psi        :      1.13s CPU      0.79s WALL (    1924 calls)
     s_psi        :      0.03s CPU      0.02s WALL (    1924 calls)
     g_psi        :      0.01s CPU      0.01s WALL (    1404 calls)

     Called by h_psi:
     h_psi:calbec :      0.04s CPU      0.03s WALL (    1924 calls)
     vloc_psi     :      1.03s CPU      0.71s WALL (    1924 calls)
     add_vuspsi   :      0.04s CPU      0.03s WALL (    1924 calls)

     General routines
     calbec       :      0.05s CPU      0.04s WALL (    2392 calls)
     fft          :      0.07s CPU      0.04s WALL (     244 calls)
     ffts         :      0.00s CPU      0.00s WALL (      38 calls)
     fftw         :      0.99s CPU      0.68s WALL (   24506 calls)
     interpolate  :      0.01s CPU      0.00s WALL (      20 calls)

     Parallel routines
     fft_scatt_xy :      0.18s CPU      0.12s WALL (   24788 calls)
     fft_scatt_yz :      0.34s CPU      0.24s WALL (   24788 calls)

     PWSCF        :      2.92s CPU      2.07s WALL


   This run was terminated on:  21:22:57  17Apr2021            

=------------------------------------------------------------------------------=
   JOB DONE.
=------------------------------------------------------------------------------=
