### Running on host: assam

     Program PWSCF v.6.4.1 starts on 14Sep2019 at 15:48:24 

     This program is part of the open-source Quantum ESPRESSO suite
     for quantum simulation of materials; please cite
         "P. Giannozzi et al., J. Phys.:Condens. Matter 21 395502 (2009);
         "P. Giannozzi et al., J. Phys.:Condens. Matter 29 465901 (2017);
          URL http://www.quantum-espresso.org", 
     in publications or presentations arising from this work. More details at
     http://www.quantum-espresso.org/quote

     Parallel version (MPI), running on     2 processors

     MPI processes distributed on     1 nodes
     R & G space division:  proc/nbgrp/npool/nimage =       2
     Reading input from pw.Fe.nscf.in

     Current dimensions of program PWSCF are:
     Max number of different atomic species (ntypx) = 10
     Max number of k-points (npk) =  40000
     Max angular momentum in pseudopotentials (lmaxx) =  3

     Atomic positions and unit cell read from directory:
     /tmp/fe.save/

               file Fe.pbe-nd-rrkjus.UPF: wavefunction(s)  4S renormalized

     Subspace diagonalization in iterative solution of the eigenvalue problem:
     a serial algorithm will be used


     Parallelization info
     --------------------
     sticks:   dense  smooth     PW     G-vecs:    dense   smooth      PW
     Min         166      84     31                 1902      704     160
     Max         167      85     32                 1903      705     161
     Sum         333     169     63                 3805     1409     321



     bravais-lattice index     =            3
     lattice parameter (alat)  =       5.4200  a.u.
     unit-cell volume          =      79.6100 (a.u.)^3
     number of atoms/cell      =            1
     number of atomic types    =            1
     number of electrons       =         8.00
     number of Kohn-Sham states=            8
     kinetic-energy cutoff     =      25.0000  Ry
     charge density cutoff     =     200.0000  Ry
     Exchange-correlation      =  SLA  PW   PBE  PBE ( 1  4  3  4 0 0)

     celldm(1)=   5.420000  celldm(2)=   0.000000  celldm(3)=   0.000000
     celldm(4)=   0.000000  celldm(5)=   0.000000  celldm(6)=   0.000000

     crystal axes: (cart. coord. in units of alat)
               a(1) = (   0.500000   0.500000   0.500000 )  
               a(2) = (  -0.500000   0.500000   0.500000 )  
               a(3) = (  -0.500000  -0.500000   0.500000 )  

     reciprocal axes: (cart. coord. in units 2 pi/alat)
               b(1) = (  1.000000  0.000000  1.000000 )  
               b(2) = ( -1.000000  1.000000  0.000000 )  
               b(3) = (  0.000000 -1.000000  1.000000 )  


     PseudoPot. # 1 for Fe read from file:
     /home/matic/pw/pseudo/Fe.pbe-nd-rrkjus.UPF
     MD5 check sum: 23c640529ef232ac9996b4ec1b0ce2fd
     Pseudo is Ultrasoft + core correction, Zval =  8.0
     Generated by new atomic code, or converted to UPF format
     Using radial grid of  957 points,  6 beta functions with: 
                l(1) =   0
                l(2) =   0
                l(3) =   1
                l(4) =   1
                l(5) =   2
                l(6) =   2
     Q(r) pseudized with 0 coefficients 


     atomic species   valence    mass     pseudopotential
        Fe             8.00     1.00000     Fe( 1.00)

     Starting magnetic structure 
     atomic species   magnetization
        Fe           0.600

     48 Sym. Ops., with inversion, found



   Cartesian axes

     site n.     atom                  positions (alat units)
         1           Fe  tau(   1) = (   0.0000000   0.0000000   0.0000000  )

     number of k points=    68 (tetrahedron method)
                       cart. coord. in units 2pi/alat
        k(    1) = (   0.0000000   0.0000000   0.0833333), wk =   0.0034722
        k(    2) = (   0.0000000  -0.0833333   0.1666667), wk =   0.0138889
        k(    3) = (   0.0000000  -0.1666667   0.2500000), wk =   0.0138889
        k(    4) = (   0.0000000  -0.2500000   0.3333333), wk =   0.0138889
        k(    5) = (   0.0000000  -0.3333333   0.4166667), wk =   0.0138889
        k(    6) = (   0.0000000  -0.4166667   0.5000000), wk =   0.0138889
        k(    7) = (  -0.0833333   0.0833333   0.0833333), wk =   0.0046296
        k(    8) = (  -0.0833333  -0.0833333   0.2500000), wk =   0.0138889
        k(    9) = (  -0.0833333  -0.1666667   0.3333333), wk =   0.0277778
        k(   10) = (  -0.0833333  -0.2500000   0.4166667), wk =   0.0277778
        k(   11) = (  -0.0833333  -0.3333333   0.5000000), wk =   0.0277778
        k(   12) = (  -0.0833333   0.5833333  -0.4166667), wk =   0.0138889
        k(   13) = (  -0.1666667   0.1666667   0.0833333), wk =   0.0138889
        k(   14) = (  -0.1666667  -0.1666667   0.4166667), wk =   0.0138889
        k(   15) = (  -0.1666667  -0.2500000   0.5000000), wk =   0.0277778
        k(   16) = (  -0.1666667   0.6666667  -0.4166667), wk =   0.0277778
        k(   17) = (  -0.2500000   0.2500000   0.0833333), wk =   0.0138889
        k(   18) = (  -0.2500000   0.1666667   0.1666667), wk =   0.0138889
        k(   19) = (  -0.2500000   0.7500000  -0.4166667), wk =   0.0138889
        k(   20) = (  -0.2500000   0.6666667  -0.3333333), wk =   0.0138889
        k(   21) = (  -0.3333333   0.3333333   0.0833333), wk =   0.0138889
        k(   22) = (  -0.3333333   0.2500000   0.1666667), wk =   0.0277778
        k(   23) = (  -0.4166667   0.4166667   0.0833333), wk =   0.0138889
        k(   24) = (  -0.4166667   0.3333333   0.1666667), wk =   0.0277778
        k(   25) = (  -0.4166667   0.2500000   0.2500000), wk =   0.0138889
        k(   26) = (   0.5000000  -0.5000000   0.0833333), wk =   0.0069444
        k(   27) = (   0.5000000  -0.5833333   0.1666667), wk =   0.0277778
        k(   28) = (   0.5000000  -0.6666667   0.2500000), wk =   0.0277778
        k(   29) = (   0.4166667  -0.5833333   0.2500000), wk =   0.0138889
        k(   30) = (   0.4166667  -0.6666667   0.3333333), wk =   0.0138889
        k(   31) = (   0.0000000   0.0000000   0.2500000), wk =   0.0034722
        k(   32) = (   0.0000000  -0.0833333   0.3333333), wk =   0.0138889
        k(   33) = (   0.0000000  -0.1666667   0.4166667), wk =   0.0138889
        k(   34) = (   0.0000000  -0.2500000   0.5000000), wk =   0.0138889
        k(   35) = (   0.0000000  -0.3333333   0.5833333), wk =   0.0138889
        k(   36) = (  -0.0833333  -0.0833333   0.4166667), wk =   0.0138889
        k(   37) = (  -0.0833333  -0.1666667   0.5000000), wk =   0.0277778
        k(   38) = (  -0.0833333  -0.2500000   0.5833333), wk =   0.0277778
        k(   39) = (  -0.0833333   0.6666667  -0.3333333), wk =   0.0138889
        k(   40) = (  -0.1666667  -0.1666667   0.5833333), wk =   0.0138889
        k(   41) = (  -0.1666667   0.7500000  -0.3333333), wk =   0.0277778
        k(   42) = (  -0.2500000   0.2500000   0.2500000), wk =   0.0046296
        k(   43) = (  -0.2500000   0.7500000  -0.2500000), wk =   0.0046296
        k(   44) = (  -0.3333333   0.3333333   0.2500000), wk =   0.0138889
        k(   45) = (   0.5833333  -0.5833333   0.2500000), wk =   0.0138889
        k(   46) = (   0.5833333  -0.6666667   0.3333333), wk =   0.0138889
        k(   47) = (   0.5000000  -0.5000000   0.2500000), wk =   0.0069444
        k(   48) = (   0.5000000  -0.5833333   0.3333333), wk =   0.0277778
        k(   49) = (   0.4166667  -0.5833333   0.4166667), wk =   0.0046296
        k(   50) = (   0.0000000   0.0000000   0.4166667), wk =   0.0034722
        k(   51) = (   0.0000000  -0.0833333   0.5000000), wk =   0.0138889
        k(   52) = (   0.0000000  -0.1666667   0.5833333), wk =   0.0138889
        k(   53) = (   0.0000000  -0.2500000   0.6666667), wk =   0.0138889
        k(   54) = (  -0.0833333  -0.0833333   0.5833333), wk =   0.0138889
        k(   55) = (  -0.0833333  -0.1666667   0.6666667), wk =   0.0277778
        k(   56) = (  -0.0833333   0.7500000  -0.2500000), wk =   0.0138889
        k(   57) = (  -0.1666667   0.8333333  -0.2500000), wk =   0.0138889
        k(   58) = (   0.5833333  -0.5833333   0.4166667), wk =   0.0046296
        k(   59) = (   0.5000000  -0.5000000   0.4166667), wk =   0.0069444
        k(   60) = (   0.0000000   0.0000000   0.5833333), wk =   0.0034722
        k(   61) = (   0.0000000  -0.0833333   0.6666667), wk =   0.0138889
        k(   62) = (   0.0000000  -0.1666667   0.7500000), wk =   0.0138889
        k(   63) = (  -0.0833333  -0.0833333   0.7500000), wk =   0.0138889
        k(   64) = (  -0.0833333   0.8333333  -0.1666667), wk =   0.0138889
        k(   65) = (   0.0000000   0.0000000   0.7500000), wk =   0.0034722
        k(   66) = (   0.0000000  -0.0833333   0.8333333), wk =   0.0138889
        k(   67) = (  -0.0833333   0.9166667  -0.0833333), wk =   0.0046296
        k(   68) = (   0.0000000   0.0000000   0.9166667), wk =   0.0034722

     Dense  grid:     3805 G-vectors     FFT dimensions: (  24,  24,  24)

     Smooth grid:     1409 G-vectors     FFT dimensions: (  15,  15,  15)

     Estimated max dynamical RAM per process >       7.48 MB

     Estimated total dynamical RAM >      14.95 MB
     Generating pointlists ...
     new r_m :   0.3572 (alat units)  1.9362 (a.u.) for type    1

     Check: negative core charge=   -0.000022

     The potential is recalculated from file :
     /tmp/fe.save/charge-density

     Starting wfcs are    6 randomized atomic wfcs +    2 random wfcs

     Band Structure Calculation
     Davidson diagonalization with overlap

     ethr =  1.25E-08,  avg # of iterations = 14.9

     total cpu time spent up to now is        2.7 secs

     End of band structure calculation

     Number of k-points >= 100: set verbosity='high' to print the bands.

     the Fermi energy is    12.8466 ev

     Writing output data file fe.save/

     init_run     :      0.21s CPU      0.21s WALL (       1 calls)
     electrons    :      2.12s CPU      2.27s WALL (       1 calls)

     Called by init_run:
     wfcinit      :      0.00s CPU      0.00s WALL (       1 calls)
     potinit      :      0.02s CPU      0.02s WALL (       1 calls)
     hinit0       :      0.18s CPU      0.18s WALL (       1 calls)

     Called by electrons:
     c_bands      :      1.88s CPU      2.03s WALL (       1 calls)
     v_of_rho     :      0.02s CPU      0.02s WALL (       1 calls)
     newd         :      0.01s CPU      0.01s WALL (       1 calls)

     Called by c_bands:
     init_us_2    :      0.01s CPU      0.01s WALL (     136 calls)
     cegterg      :      1.73s CPU      1.87s WALL (     146 calls)

     Called by sum_band:

     Called by *egterg:
     h_psi        :      1.06s CPU      1.14s WALL (    2305 calls)
     s_psi        :      0.05s CPU      0.06s WALL (    2305 calls)
     g_psi        :      0.01s CPU      0.01s WALL (    2023 calls)
     cdiaghg      :      0.46s CPU      0.50s WALL (    2159 calls)

     Called by h_psi:
     h_psi:pot    :      1.05s CPU      1.14s WALL (    2305 calls)
     h_psi:calbec :      0.05s CPU      0.05s WALL (    2305 calls)
     vloc_psi     :      0.94s CPU      1.02s WALL (    2305 calls)
     add_vuspsi   :      0.05s CPU      0.06s WALL (    2305 calls)

     General routines
     calbec       :      0.04s CPU      0.05s WALL (    2305 calls)
     fft          :      0.01s CPU      0.01s WALL (      23 calls)
     ffts         :      0.00s CPU      0.00s WALL (       2 calls)
     fftw         :      0.87s CPU      0.94s WALL (   23862 calls)
     interpolate  :      0.00s CPU      0.00s WALL (       2 calls)
     davcio       :      0.00s CPU      0.00s WALL (     272 calls)

     Parallel routines
     fft_scatt_xy :      0.10s CPU      0.10s WALL (   23887 calls)
     fft_scatt_yz :      0.18s CPU      0.20s WALL (   23887 calls)

     PWSCF        :      2.59s CPU      2.75s WALL


   This run was terminated on:  15:48:27  14Sep2019            

=------------------------------------------------------------------------------=
   JOB DONE.
=------------------------------------------------------------------------------=
