
     Program PWSCF v.6.7MaX starts on 26Apr2021 at 16:38:27 

     This program is part of the open-source Quantum ESPRESSO suite
     for quantum simulation of materials; please cite
         "P. Giannozzi et al., J. Phys.:Condens. Matter 21 395502 (2009);
         "P. Giannozzi et al., J. Phys.:Condens. Matter 29 465901 (2017);
          URL http://www.quantum-espresso.org", 
     in publications or presentations arising from this work. More details at
     http://www.quantum-espresso.org/quote

     Parallel version (MPI), running on     2 processors

     MPI processes distributed on     1 nodes
     R & G space division:  proc/nbgrp/npool/nimage =       2
     Reading input from pw.urea.vc-relax.in

     Current dimensions of program PWSCF are:
     Max number of different atomic species (ntypx) = 10
     Max number of k-points (npk) =  40000
     Max angular momentum in pseudopotentials (lmaxx) =  3
     file H.pbe-rrkjus.UPF: wavefunction(s)  1S renormalized
     file C.pbe-rrkjus.UPF: wavefunction(s)  2S 2P renormalized
     file N.pbe-rrkjus.UPF: wavefunction(s)  2S renormalized
     file O.pbe-rrkjus.UPF: wavefunction(s)  2S renormalized

     --------------------------------------------
     Parameters for DFT-D3 Dispersion Correction:
     --------------------------------------------
       Reference C6 values for interpolation: 

         atom   Coordination number   C6
         H          0.912             6.05
         H          0.000            15.18
         C          0.000            98.23
         C          0.987            86.49
         C          1.998            58.72
         C          2.999            51.56
         C          3.984            36.41
         N          0.000            50.54
         N          0.994            44.25
         N          2.014            39.35
         N          2.990            31.16
         O          0.000            31.01
         O          0.993            25.63
         O          1.989            20.74

       Values used:

         atom   Coordination number  R0_AB[au]  C6      C8
         C          3.053            2.750     51.13   1478.75
         O          1.156            2.345     25.32    510.96
         N          3.107            2.478     31.23    688.98
         H          1.038            2.062      6.15     74.35
         H          1.012            2.062      6.17     74.60
         N          3.107            2.478     31.23    688.98
         H          1.039            2.062      6.15     74.34
         H          1.012            2.062      6.17     74.60
         C          3.053            2.750     51.13   1478.74
         O          1.156            2.345     25.32    510.95
         N          3.107            2.478     31.23    688.98
         N          3.107            2.478     31.23    688.98
         H          1.039            2.062      6.15     74.34
         H          1.038            2.062      6.15     74.35
         H          1.012            2.062      6.17     74.60
         H          1.012            2.062      6.17     74.60

         Molecular C6 ( Ry / a.u.^6 ) =      4394.03


     gamma-point specific algorithms are used

     Subspace diagonalization in iterative solution of the eigenvalue problem:
     a serial algorithm will be used


     Parallelization info
     --------------------
     sticks:   dense  smooth     PW     G-vecs:    dense   smooth      PW
     Min         808     402     98                24077     8525    1045
     Max         809     403     99                24088     8526    1046
     Sum        1617     805    197                48165    17051    2091



     bravais-lattice index     =            6
     lattice parameter (alat)  =       9.2480  a.u.
     unit-cell volume          =     767.2117 (a.u.)^3
     number of atoms/cell      =           16
     number of atomic types    =            4
     number of electrons       =        48.00
     number of Kohn-Sham states=           24
     kinetic-energy cutoff     =      30.0000  Ry
     charge density cutoff     =     240.0000  Ry
     scf convergence threshold =      1.0E-07
     mixing beta               =       0.7000
     number of iterations used =            8  plain     mixing
     energy convergence thresh.=      1.0E-04
     force convergence thresh. =      1.0E-03
     press convergence thresh. =      5.0E-01
     Exchange-correlation=  SLA  PW   PBE  PBE
                           (   1   4   3   4   0   0   0)
     nstep                     =           50


     celldm(1)=   9.248000  celldm(2)=   0.000000  celldm(3)=   0.970000
     celldm(4)=   0.000000  celldm(5)=   0.000000  celldm(6)=   0.000000

     crystal axes: (cart. coord. in units of alat)
               a(1) = (   1.000000   0.000000   0.000000 )  
               a(2) = (   0.000000   1.000000   0.000000 )  
               a(3) = (   0.000000   0.000000   0.970000 )  

     reciprocal axes: (cart. coord. in units 2 pi/alat)
               b(1) = (  1.000000  0.000000  0.000000 )  
               b(2) = (  0.000000  1.000000  0.000000 )  
               b(3) = (  0.000000  0.000000  1.030928 )  


     PseudoPot. # 1 for H  read from file:
     /home/user/QE-2021/pseudo/H.pbe-rrkjus.UPF
     MD5 check sum: 7cc9d459525c9a0585f487a71c3c9563
     Pseudo is Ultrasoft, Zval =  1.0
     Generated by new atomic code, or converted to UPF format
     Using radial grid of 1061 points,  2 beta functions with: 
                l(1) =   0
                l(2) =   0
     Q(r) pseudized with 0 coefficients 


     PseudoPot. # 2 for C  read from file:
     /home/user/QE-2021/pseudo/C.pbe-rrkjus.UPF
     MD5 check sum: 00fb224312de0c5b6853bd333518df6f
     Pseudo is Ultrasoft, Zval =  4.0
     Generated by new atomic code, or converted to UPF format
     Using radial grid of  627 points,  4 beta functions with: 
                l(1) =   0
                l(2) =   0
                l(3) =   1
                l(4) =   1
     Q(r) pseudized with 0 coefficients 


     PseudoPot. # 3 for N  read from file:
     /home/user/QE-2021/pseudo/N.pbe-rrkjus.UPF
     MD5 check sum: 0c3fbe5807a93f9ba59d5a7019aa238b
     Pseudo is Ultrasoft, Zval =  5.0
     Generated by new atomic code, or converted to UPF format
     Using radial grid of 1257 points,  4 beta functions with: 
                l(1) =   0
                l(2) =   0
                l(3) =   1
                l(4) =   1
     Q(r) pseudized with 0 coefficients 


     PseudoPot. # 4 for O  read from file:
     /home/user/QE-2021/pseudo/O.pbe-rrkjus.UPF
     MD5 check sum: 390ba29e75625707450f3bd3f0eb6be9
     Pseudo is Ultrasoft, Zval =  6.0
     Generated by new atomic code, or converted to UPF format
     Using radial grid of 1269 points,  4 beta functions with: 
                l(1) =   0
                l(2) =   0
                l(3) =   1
                l(4) =   1
     Q(r) pseudized with 0 coefficients 


     atomic species   valence    mass     pseudopotential
        H              1.00     1.00000     H ( 1.00)
        C              4.00     1.00000     C ( 1.00)
        N              5.00     1.00000     N ( 1.00)
        O              6.00     1.00000     O ( 1.00)

     No symmetry found



   Cartesian axes

     site n.     atom                  positions (alat units)
         1           C   tau(   1) = (  -0.0002939   0.4998228   0.2939170  )
         2           O   tau(   2) = (  -0.0007146   0.5001480   0.5532914  )
         3           N   tau(   3) = (   0.1689438   0.6680703   0.1599530  )
         4           H   tau(   4) = (   0.2934480   0.7930711   0.2771017  )
         5           H   tau(   5) = (   0.1785354   0.6775591  -0.0476022  )
         6           N   tau(   6) = (  -0.1691502   0.3312137   0.1598971  )
         7           H   tau(   7) = (  -0.2939352   0.2065347   0.2770967  )
         8           H   tau(   8) = (  -0.1783652   0.3213380  -0.0476500  )
         9           C   tau(   9) = (   0.4994855   0.0001001   0.6931864  )
        10           O   tau(  10) = (   0.4996964  -0.0000136   0.4335371  )
        11           N   tau(  11) = (   0.6680256  -0.1692306   0.8269427  )
        12           N   tau(  12) = (   0.3313663   0.1689254   0.8267710  )
        13           H   tau(  13) = (   0.7929045  -0.2937543   0.7098160  )
        14           H   tau(  14) = (   0.2062656   0.2937070   0.7098779  )
        15           H   tau(  15) = (   0.6776818  -0.1785094   1.0344913  )
        16           H   tau(  16) = (   0.3215411   0.1782671   1.0345663  )

     number of k points=     1
                       cart. coord. in units 2pi/alat
        k(    1) = (   0.0000000   0.0000000   0.0000000), wk =   2.0000000

     Dense  grid:    24083 G-vectors     FFT dimensions: (  45,  45,  45)

     Smooth grid:     8526 G-vectors     FFT dimensions: (  36,  36,  32)

     Estimated max dynamical RAM per process >      24.97 MB

     Estimated total dynamical RAM >      49.95 MB

     Initial potential from superposition of free atoms

     starting charge   47.23022, renormalised to   48.00000
     Starting wfcs are   40 randomized atomic wfcs

     total cpu time spent up to now is        2.1 secs

     Self-consistent Calculation

     iteration #  1     ecut=    30.00 Ry     beta= 0.70
     Davidson diagonalization with overlap
     ethr =  1.00E-02,  avg # of iterations =  2.0

     total cpu time spent up to now is        9.4 secs

     total energy              =    -174.76540104 Ry
     estimated scf accuracy    <       2.76768099 Ry

     iteration #  2     ecut=    30.00 Ry     beta= 0.70
     Davidson diagonalization with overlap
     ethr =  5.77E-03,  avg # of iterations =  3.0

     total cpu time spent up to now is        9.5 secs

     total energy              =    -175.54520245 Ry
     estimated scf accuracy    <       1.33460933 Ry

     iteration #  3     ecut=    30.00 Ry     beta= 0.70
     Davidson diagonalization with overlap
     ethr =  2.78E-03,  avg # of iterations =  2.0

     total cpu time spent up to now is        9.6 secs

     total energy              =    -175.69118945 Ry
     estimated scf accuracy    <       0.05914171 Ry

     iteration #  4     ecut=    30.00 Ry     beta= 0.70
     Davidson diagonalization with overlap
     ethr =  1.23E-04,  avg # of iterations =  5.0

     total cpu time spent up to now is        9.8 secs

     total energy              =    -175.73679821 Ry
     estimated scf accuracy    <       0.07625991 Ry

     iteration #  5     ecut=    30.00 Ry     beta= 0.70
     Davidson diagonalization with overlap
     ethr =  1.23E-04,  avg # of iterations =  2.0

     total cpu time spent up to now is        9.9 secs

     total energy              =    -175.73572316 Ry
     estimated scf accuracy    <       0.01386502 Ry

     iteration #  6     ecut=    30.00 Ry     beta= 0.70
     Davidson diagonalization with overlap
     ethr =  2.89E-05,  avg # of iterations =  3.0

     total cpu time spent up to now is       10.0 secs

     total energy              =    -175.74072355 Ry
     estimated scf accuracy    <       0.00150834 Ry

     iteration #  7     ecut=    30.00 Ry     beta= 0.70
     Davidson diagonalization with overlap
     ethr =  3.14E-06,  avg # of iterations =  2.0

     total cpu time spent up to now is       10.1 secs

     total energy              =    -175.74100369 Ry
     estimated scf accuracy    <       0.00001710 Ry

     iteration #  8     ecut=    30.00 Ry     beta= 0.70
     Davidson diagonalization with overlap
     ethr =  3.56E-08,  avg # of iterations =  6.0

     total cpu time spent up to now is       10.3 secs

     total energy              =    -175.74101482 Ry
     estimated scf accuracy    <       0.00004387 Ry

     iteration #  9     ecut=    30.00 Ry     beta= 0.70
     Davidson diagonalization with overlap
     ethr =  3.56E-08,  avg # of iterations =  5.0

     total cpu time spent up to now is       10.4 secs

     total energy              =    -175.74102934 Ry
     estimated scf accuracy    <       0.00000394 Ry

     iteration # 10     ecut=    30.00 Ry     beta= 0.70
     Davidson diagonalization with overlap
     ethr =  8.20E-09,  avg # of iterations =  4.0

     total cpu time spent up to now is       10.5 secs

     total energy              =    -175.74102805 Ry
     estimated scf accuracy    <       0.00000639 Ry

     iteration # 11     ecut=    30.00 Ry     beta= 0.70
     Davidson diagonalization with overlap
     ethr =  8.20E-09,  avg # of iterations =  2.0

     total cpu time spent up to now is       10.6 secs

     total energy              =    -175.74102732 Ry
     estimated scf accuracy    <       0.00000221 Ry

     iteration # 12     ecut=    30.00 Ry     beta= 0.70
     Davidson diagonalization with overlap
     ethr =  4.60E-09,  avg # of iterations =  4.0

     total cpu time spent up to now is       10.7 secs

     End of self-consistent calculation

          k = 0.0000 0.0000 0.0000 (  1046 PWs)   bands (ev):

   -18.9037 -18.4127 -15.0494 -14.9123 -13.9770 -13.9697  -8.2125  -7.0722
    -6.7357  -5.8303  -5.8297  -4.6449  -4.4469  -4.4391  -2.8225  -2.2730
    -2.2714  -1.6193   0.0991   0.6809   0.6893   1.2098   1.2135   2.1455

     highest occupied level (ev):     2.1455

!    total energy              =    -175.74102789 Ry
     estimated scf accuracy    <       0.00000001 Ry

     The total energy is the sum of the following terms:
     one-electron contribution =     -89.72268652 Ry
     hartree contribution      =      65.03086441 Ry
     xc contribution           =     -47.50085892 Ry
     ewald contribution        =    -103.47150770 Ry
     DFT-D3 Dispersion         =      -0.07683916 Ry

     convergence has been achieved in  12 iterations

     Forces acting on atoms (cartesian axes, Ry/au):

     atom    1 type  2   force =    -0.00009825   -0.00006410   -0.00348289
     atom    2 type  4   force =     0.00019210   -0.00021762    0.00059498
     atom    3 type  3   force =     0.00031560    0.00032988    0.00125968
     atom    4 type  1   force =     0.00000159   -0.00005058   -0.00026981
     atom    5 type  1   force =    -0.00018713   -0.00021389    0.00088753
     atom    6 type  3   force =    -0.00015347   -0.00022201    0.00135182
     atom    7 type  1   force =    -0.00000976    0.00001175   -0.00030380
     atom    8 type  1   force =     0.00018484    0.00022906    0.00083702
     atom    9 type  2   force =     0.00318061   -0.00325107   -0.00144165
     atom   10 type  4   force =    -0.00009776    0.00009295    0.00207179
     atom   11 type  3   force =    -0.00091453    0.00096649   -0.00103943
     atom   12 type  3   force =    -0.00325577    0.00320451    0.00249362
     atom   13 type  1   force =     0.00002230   -0.00007482    0.00001029
     atom   14 type  1   force =     0.00056293   -0.00050053    0.00033130
     atom   15 type  1   force =    -0.00000826   -0.00002241   -0.00068707
     atom   16 type  1   force =     0.00026494   -0.00021763   -0.00261338

     Total force =     0.009122     Total SCF correction =     0.000199


     Computing stress (Cartesian axis) and pressure

          total   stress  (Ry/bohr**3)                   (kbar)     P=       18.98
   0.00012071  -0.00000223  -0.00000662           17.76       -0.33       -0.97
  -0.00000223   0.00012036   0.00000627           -0.33       17.71        0.92
  -0.00000662   0.00000627   0.00014608           -0.97        0.92       21.49


     BFGS Geometry Optimization
     Energy error            =      0.0E+00
     Gradient error          =      3.5E-03
     Cell gradient error     =      1.5E-04


     number of scf cycles    =   1
     number of bfgs steps    =   0

     enthalpy new            =    -175.7410278908 Ry

     new trust radius        =       0.0202708894 bohr
     new conv_thr            =       0.0000001000 Ry

     new unit-cell volume =    774.66121 a.u.^3 (   114.79295 Ang^3 )
     density =      0.23145 g/cm^3

CELL_PARAMETERS (alat=  9.24800000)
   1.003017794  -0.000055843  -0.000165404
  -0.000055843   1.003008948   0.000156793
  -0.000160442   0.000152089   0.973542525

ATOMIC_POSITIONS (angstrom)
C            -0.0018691085        2.4535996845        1.4421672401
O            -0.0039901277        2.4553136248        2.7183036244
N             0.8291329079        3.2795125105        0.7866864686
H             1.4399787526        3.8929395308        1.3612689167
H             0.8761126357        3.3256381975       -0.2329613128
N            -0.8305923040        1.6258323080        0.7864763510
H            -1.4430959925        1.0140861693        1.3612520668
H            -0.8754745811        1.5774392555       -0.2332073389
C             2.4529015156       -0.0008391553        3.4035557848
O             2.4524063868        0.0001789324        2.1301018240
N             3.2779615935       -0.8297131267        4.0604749309
N             1.6241006474        0.8314247955        4.0620401473
H             3.8915683471       -1.4416211948        3.4855439378
H             1.0121188814        1.4419001451        3.4869440570
H             3.3256753763       -0.8756270005        5.0800639576
H             1.5775713125        0.8756241707        5.0799716432



     Writing output data file /tmp/urea.save/
     NEW-OLD atomic charge density approx. for the potential
     extrapolated charge   48.45419, renormalised to   48.00000

     total cpu time spent up to now is       31.8 secs

     Self-consistent Calculation

     iteration #  1     ecut=    30.00 Ry     beta= 0.70
     Davidson diagonalization with overlap
     ethr =  1.00E-06,  avg # of iterations =  6.0

     total cpu time spent up to now is       38.8 secs

     total energy              =    -175.72641284 Ry
     estimated scf accuracy    <       0.01142625 Ry

     iteration #  2     ecut=    30.00 Ry     beta= 0.70
     Davidson diagonalization with overlap
     ethr =  2.38E-05,  avg # of iterations =  5.0

     total cpu time spent up to now is       39.0 secs

     total energy              =    -175.74026278 Ry
     estimated scf accuracy    <       0.03291070 Ry

     iteration #  3     ecut=    30.00 Ry     beta= 0.70
     Davidson diagonalization with overlap
     ethr =  2.38E-05,  avg # of iterations =  2.0

     total cpu time spent up to now is       39.1 secs

     total energy              =    -175.74174815 Ry
     estimated scf accuracy    <       0.00571527 Ry

     iteration #  4     ecut=    30.00 Ry     beta= 0.70
     Davidson diagonalization with overlap
     ethr =  1.19E-05,  avg # of iterations =  2.0

     total cpu time spent up to now is       39.2 secs

     total energy              =    -175.74137991 Ry
     estimated scf accuracy    <       0.00230256 Ry

     iteration #  5     ecut=    30.00 Ry     beta= 0.70
     Davidson diagonalization with overlap
     ethr =  4.80E-06,  avg # of iterations =  2.0

     total cpu time spent up to now is       39.3 secs

     total energy              =    -175.74136786 Ry
     estimated scf accuracy    <       0.00049037 Ry

     iteration #  6     ecut=    30.00 Ry     beta= 0.70
     Davidson diagonalization with overlap
     ethr =  1.02E-06,  avg # of iterations =  5.0

     total cpu time spent up to now is       39.5 secs

     total energy              =    -175.74151909 Ry
     estimated scf accuracy    <       0.00001134 Ry

     iteration #  7     ecut=    30.00 Ry     beta= 0.70
     Davidson diagonalization with overlap
     ethr =  2.36E-08,  avg # of iterations =  2.0

     total cpu time spent up to now is       39.6 secs

     total energy              =    -175.74152267 Ry
     estimated scf accuracy    <       0.00000380 Ry

     iteration #  8     ecut=    30.00 Ry     beta= 0.70
     Davidson diagonalization with overlap
     ethr =  7.92E-09,  avg # of iterations =  6.0

     total cpu time spent up to now is       39.7 secs

     total energy              =    -175.74151536 Ry
     estimated scf accuracy    <       0.00003764 Ry

     iteration #  9     ecut=    30.00 Ry     beta= 0.70
     Davidson diagonalization with overlap
     ethr =  7.92E-09,  avg # of iterations =  5.0

     total cpu time spent up to now is       39.9 secs

     total energy              =    -175.74152011 Ry
     estimated scf accuracy    <       0.00000097 Ry

     iteration # 10     ecut=    30.00 Ry     beta= 0.70
     Davidson diagonalization with overlap
     ethr =  2.01E-09,  avg # of iterations =  3.0

     total cpu time spent up to now is       40.0 secs

     End of self-consistent calculation

          k = 0.0000 0.0000 0.0000 (  1046 PWs)   bands (ev):

   -18.9022 -18.4179 -15.0807 -14.9496 -14.0199 -14.0076  -8.2544  -7.1009
    -6.7919  -5.8655  -5.8631  -4.7036  -4.4889  -4.4792  -2.8793  -2.3231
    -2.3202  -1.6962   0.0463   0.6192   0.6307   1.1402   1.1449   2.0644

     highest occupied level (ev):     2.0644

!    total energy              =    -175.74152038 Ry
     estimated scf accuracy    <          9.0E-09 Ry

     The total energy is the sum of the following terms:
     one-electron contribution =     -90.23643837 Ry
     hartree contribution      =      65.16447729 Ry
     xc contribution           =     -47.43853435 Ry
     ewald contribution        =    -103.15484370 Ry
     DFT-D3 Dispersion         =      -0.07618126 Ry

     convergence has been achieved in  10 iterations

     Forces acting on atoms (cartesian axes, Ry/au):

     atom    1 type  2   force =     0.00016015    0.00011002    0.00642977
     atom    2 type  4   force =    -0.00018900    0.00016870   -0.01394822
     atom    3 type  3   force =    -0.00187626   -0.00173340    0.00002941
     atom    4 type  1   force =    -0.00235394   -0.00229395   -0.00180147
     atom    5 type  1   force =    -0.00032543   -0.00032928    0.00700284
     atom    6 type  3   force =     0.00159119    0.00164096   -0.00012635
     atom    7 type  1   force =     0.00227420    0.00240241   -0.00186041
     atom    8 type  1   force =     0.00030073    0.00037808    0.00707369
     atom    9 type  2   force =    -0.00493834    0.00500849    0.00135021
     atom   10 type  4   force =    -0.00000098    0.00000055    0.00934098
     atom   11 type  3   force =     0.00019513   -0.00012575   -0.00045961
     atom   12 type  3   force =     0.00649147   -0.00651639   -0.00585677
     atom   13 type  1   force =    -0.00261503    0.00254762    0.00235449
     atom   14 type  1   force =     0.00166254   -0.00161486    0.00162493
     atom   15 type  1   force =    -0.00055960    0.00050953   -0.00693344
     atom   16 type  1   force =     0.00018315   -0.00015274   -0.00422004

     Total force =     0.026960     Total SCF correction =     0.000131


     Computing stress (Cartesian axis) and pressure

          total   stress  (Ry/bohr**3)                   (kbar)     P=        0.75
   0.00003275   0.00000455   0.00000828            4.82        0.67        1.22
   0.00000455   0.00003238  -0.00000781            0.67        4.76       -1.15
   0.00000828  -0.00000781  -0.00004979            1.22       -1.15       -7.32

     Energy error            =      4.9E-04
     Gradient error          =      1.4E-02
     Cell gradient error     =      5.0E-05


     number of scf cycles    =   2
     number of bfgs steps    =   1

     enthalpy old            =    -175.7410278908 Ry
     enthalpy new            =    -175.7415203828 Ry

     CASE: enthalpy_new < enthalpy_old

     new trust radius        =       0.0159158078 bohr
     new conv_thr            =       0.0000000049 Ry

     new unit-cell volume =    780.13099 a.u.^3 (   115.60349 Ang^3 )
     density =      0.22983 g/cm^3

CELL_PARAMETERS (alat=  9.24800000)
   1.005883584   0.000013265  -0.000084010
   0.000013266   1.005859944   0.000080444
  -0.000081304   0.000077857   0.974852341

ATOMIC_POSITIONS (angstrom)
C            -0.0015435588        2.4604955462        1.4458681223
O            -0.0036322285        2.4620869614        2.7149838838
N             0.8309660024        3.2880818398        0.7880408124
H             1.4432909329        3.9028284064        1.3619159224
H             0.8785930063        3.3349260791       -0.2296117341
N            -0.8320458252        1.6310788643        0.7877772166
H            -1.4458983046        1.0179760805        1.3618420430
H            -0.8776677537        1.5821558041       -0.2298501770
C             2.4588783572        0.0003857857        3.4084831898
O             2.4595497566        0.0002211363        2.1386238355
N             3.2873630337       -0.8318636143        4.0656543441
N             1.6311936574        0.8314942532        4.0655482607
H             3.9015662713       -1.4444644086        3.4918476638
H             1.0164382083        1.4448052697        3.4925458768
H             3.3352488576       -0.8780288778        5.0834995735
H             1.5827447918        0.8776749116        5.0837849632



     Writing output data file /tmp/urea.save/
     NEW-OLD atomic charge density approx. for the potential
     extrapolated charge   48.33115, renormalised to   48.00000

     total cpu time spent up to now is       60.0 secs

     Self-consistent Calculation

     iteration #  1     ecut=    30.00 Ry     beta= 0.70
     Davidson diagonalization with overlap
     ethr =  1.00E-06,  avg # of iterations =  7.0

     total cpu time spent up to now is       66.9 secs

     total energy              =    -175.73513591 Ry
     estimated scf accuracy    <       0.00456274 Ry

     iteration #  2     ecut=    30.00 Ry     beta= 0.70
     Davidson diagonalization with overlap
     ethr =  9.51E-06,  avg # of iterations =  5.0

     total cpu time spent up to now is       67.0 secs

     total energy              =    -175.74155212 Ry
     estimated scf accuracy    <       0.01665952 Ry

     iteration #  3     ecut=    30.00 Ry     beta= 0.70
     Davidson diagonalization with overlap
     ethr =  9.51E-06,  avg # of iterations =  3.0

     total cpu time spent up to now is       67.1 secs

     total energy              =    -175.74236072 Ry
     estimated scf accuracy    <       0.00301280 Ry

     iteration #  4     ecut=    30.00 Ry     beta= 0.70
     Davidson diagonalization with overlap
     ethr =  6.28E-06,  avg # of iterations =  1.0

     total cpu time spent up to now is       67.3 secs

     total energy              =    -175.74173376 Ry
     estimated scf accuracy    <       0.00172512 Ry

     iteration #  5     ecut=    30.00 Ry     beta= 0.70
     Davidson diagonalization with overlap
     ethr =  3.59E-06,  avg # of iterations =  2.0

     total cpu time spent up to now is       67.4 secs

     total energy              =    -175.74190479 Ry
     estimated scf accuracy    <       0.00011458 Ry

     iteration #  6     ecut=    30.00 Ry     beta= 0.70
     Davidson diagonalization with overlap
     ethr =  2.39E-07,  avg # of iterations =  5.0

     total cpu time spent up to now is       67.5 secs

     total energy              =    -175.74196009 Ry
     estimated scf accuracy    <       0.00001102 Ry

     iteration #  7     ecut=    30.00 Ry     beta= 0.70
     Davidson diagonalization with overlap
     ethr =  2.30E-08,  avg # of iterations =  2.0

     total cpu time spent up to now is       67.6 secs

     total energy              =    -175.74195410 Ry
     estimated scf accuracy    <       0.00001478 Ry

     iteration #  8     ecut=    30.00 Ry     beta= 0.70
     Davidson diagonalization with overlap
     ethr =  2.30E-08,  avg # of iterations =  3.0

     total cpu time spent up to now is       67.8 secs

     total energy              =    -175.74195650 Ry
     estimated scf accuracy    <       0.00000024 Ry

     iteration #  9     ecut=    30.00 Ry     beta= 0.70
     Davidson diagonalization with overlap
     ethr =  4.90E-10,  avg # of iterations =  6.0

     total cpu time spent up to now is       67.9 secs

     total energy              =    -175.74195675 Ry
     estimated scf accuracy    <       0.00000057 Ry

     iteration # 10     ecut=    30.00 Ry     beta= 0.70
     Davidson diagonalization with overlap
     ethr =  4.90E-10,  avg # of iterations =  3.0

     total cpu time spent up to now is       68.0 secs

     total energy              =    -175.74195667 Ry
     estimated scf accuracy    <       0.00000020 Ry

     iteration # 11     ecut=    30.00 Ry     beta= 0.70
     Davidson diagonalization with overlap
     ethr =  4.23E-10,  avg # of iterations =  3.0

     total cpu time spent up to now is       68.2 secs

     End of self-consistent calculation

          k = 0.0000 0.0000 0.0000 (  1046 PWs)   bands (ev):

   -18.9870 -18.5256 -15.1349 -14.9896 -14.0613 -14.0574  -8.2885  -7.1349
    -6.8401  -5.9255  -5.9251  -4.7500  -4.5270  -4.5229  -2.9543  -2.3935
    -2.3923  -1.7850   0.0117   0.5735   0.5777   1.0819   1.0835   2.0062

     highest occupied level (ev):     2.0062

!    total energy              =    -175.74195671 Ry
     estimated scf accuracy    <          2.4E-09 Ry

     The total energy is the sum of the following terms:
     one-electron contribution =     -91.28769493 Ry
     hartree contribution      =      65.58549058 Ry
     xc contribution           =     -47.43221962 Ry
     ewald contribution        =    -102.53181478 Ry
     DFT-D3 Dispersion         =      -0.07571797 Ry

     convergence has been achieved in  11 iterations

     Forces acting on atoms (cartesian axes, Ry/au):

     atom    1 type  2   force =    -0.00001872   -0.00006013   -0.00878277
     atom    2 type  4   force =     0.00007488   -0.00007476    0.00103270
     atom    3 type  3   force =    -0.00281018   -0.00275154    0.00486758
     atom    4 type  1   force =    -0.00397186   -0.00400056   -0.00260787
     atom    5 type  1   force =    -0.00049443   -0.00050532    0.00387658
     atom    6 type  3   force =     0.00285902    0.00279680    0.00488695
     atom    7 type  1   force =     0.00396305    0.00399487   -0.00263609
     atom    8 type  1   force =     0.00048217    0.00053329    0.00384865
     atom    9 type  2   force =     0.00121623   -0.00123578    0.00614232
     atom   10 type  4   force =    -0.00008594    0.00008381    0.00062420
     atom   11 type  3   force =    -0.00315790    0.00322873   -0.00426281
     atom   12 type  3   force =     0.00148508   -0.00155854   -0.00323798
     atom   13 type  1   force =    -0.00392925    0.00387659    0.00244070
     atom   14 type  1   force =     0.00423617   -0.00418183    0.00256236
     atom   15 type  1   force =    -0.00040599    0.00037315   -0.00407447
     atom   16 type  1   force =     0.00055767   -0.00051879   -0.00468004

     Total force =     0.021862     Total SCF correction =     0.000075


     Computing stress (Cartesian axis) and pressure

          total   stress  (Ry/bohr**3)                   (kbar)     P=       -1.37
  -0.00002219  -0.00000159  -0.00000249           -3.26       -0.23       -0.37
  -0.00000159  -0.00002242   0.00000241           -0.23       -3.30        0.36
  -0.00000249   0.00000241   0.00001662           -0.37        0.36        2.44

     Energy error            =      4.4E-04
     Gradient error          =      8.8E-03
     Cell gradient error     =      2.2E-05


     number of scf cycles    =   3
     number of bfgs steps    =   2

     enthalpy old            =    -175.7415203828 Ry
     enthalpy new            =    -175.7419567133 Ry

     CASE: enthalpy_new < enthalpy_old

     new trust radius        =       0.0147598138 bohr
     new conv_thr            =       0.0000000044 Ry

     new unit-cell volume =    786.14025 a.u.^3 (   116.49397 Ang^3 )
     density =      0.22807 g/cm^3

CELL_PARAMETERS (alat=  9.24800000)
   1.008541238   0.000025001  -0.000104517
   0.000025002   1.008494358   0.000102441
  -0.000101167   0.000099171   0.977213470

ATOMIC_POSITIONS (angstrom)
C            -0.0015234696        2.4669577525        1.4453268508
O            -0.0036255154        2.4685299704        2.7154908733
N             0.8305223568        3.2941778263        0.7937919935
H             1.4433114465        3.9092726363        1.3625188511
H             0.8803804232        3.3430700306       -0.2236106429
N            -0.8316197067        1.6379337609        0.7935008711
H            -1.4459721423        1.0245112307        1.3623766905
H            -0.8794108555        1.5869329837       -0.2238575440
C             2.4650452149        0.0007409677        3.4207617234
O             2.4659021058        0.0003957172        2.1498391331
N             3.2935602030       -0.8314139585        4.0719095293
N             1.6382266444        0.8308994510        4.0714092087
H             3.9078806452       -1.4443127492        3.5030005565
H             1.0229604633        1.4448750077        3.5036738315
H             3.3433945474       -0.8796868246        5.0892190502
H             1.5874162622        0.8795827518        5.0896823695



     Writing output data file /tmp/urea.save/
     NEW-OLD atomic charge density approx. for the potential
     extrapolated charge   48.36103, renormalised to   48.00000

     total cpu time spent up to now is       87.9 secs

     Self-consistent Calculation

     iteration #  1     ecut=    30.00 Ry     beta= 0.70
     Davidson diagonalization with overlap
     ethr =  1.00E-06,  avg # of iterations =  7.0

     total cpu time spent up to now is       94.6 secs

     total energy              =    -175.73466219 Ry
     estimated scf accuracy    <       0.00482825 Ry

     iteration #  2     ecut=    30.00 Ry     beta= 0.70
     Davidson diagonalization with overlap
     ethr =  1.01E-05,  avg # of iterations =  5.0

     total cpu time spent up to now is       94.7 secs

     total energy              =    -175.74201742 Ry
     estimated scf accuracy    <       0.01999060 Ry

     iteration #  3     ecut=    30.00 Ry     beta= 0.70
     Davidson diagonalization with overlap
     ethr =  1.01E-05,  avg # of iterations =  3.0

     total cpu time spent up to now is       94.9 secs

     total energy              =    -175.74308114 Ry
     estimated scf accuracy    <       0.00384744 Ry

     iteration #  4     ecut=    30.00 Ry     beta= 0.70
     Davidson diagonalization with overlap
     ethr =  8.02E-06,  avg # of iterations =  1.0

     total cpu time spent up to now is       95.0 secs

     total energy              =    -175.74219299 Ry
     estimated scf accuracy    <       0.00269789 Ry

     iteration #  5     ecut=    30.00 Ry     beta= 0.70
     Davidson diagonalization with overlap
     ethr =  5.62E-06,  avg # of iterations =  2.0

     total cpu time spent up to now is       95.1 secs

     total energy              =    -175.74221996 Ry
     estimated scf accuracy    <       0.00040821 Ry

     iteration #  6     ecut=    30.00 Ry     beta= 0.70
     Davidson diagonalization with overlap
     ethr =  8.50E-07,  avg # of iterations =  4.0

     total cpu time spent up to now is       95.2 secs

     total energy              =    -175.74235215 Ry
     estimated scf accuracy    <       0.00000910 Ry

     iteration #  7     ecut=    30.00 Ry     beta= 0.70
     Davidson diagonalization with overlap
     ethr =  1.90E-08,  avg # of iterations =  3.0

     total cpu time spent up to now is       95.3 secs

     total energy              =    -175.74234942 Ry
     estimated scf accuracy    <       0.00000888 Ry

     iteration #  8     ecut=    30.00 Ry     beta= 0.70
     Davidson diagonalization with overlap
     ethr =  1.85E-08,  avg # of iterations =  2.0

     total cpu time spent up to now is       95.5 secs

     total energy              =    -175.74235098 Ry
     estimated scf accuracy    <       0.00000009 Ry

     iteration #  9     ecut=    30.00 Ry     beta= 0.70
     Davidson diagonalization with overlap
     ethr =  1.80E-10,  avg # of iterations =  7.0

     total cpu time spent up to now is       95.6 secs

     total energy              =    -175.74235092 Ry
     estimated scf accuracy    <       0.00000064 Ry

     iteration # 10     ecut=    30.00 Ry     beta= 0.70
     Davidson diagonalization with overlap
     ethr =  1.80E-10,  avg # of iterations =  5.0

     total cpu time spent up to now is       95.8 secs

     total energy              =    -175.74235106 Ry
     estimated scf accuracy    <       0.00000001 Ry

     iteration # 11     ecut=    30.00 Ry     beta= 0.70
     Davidson diagonalization with overlap
     ethr =  2.12E-11,  avg # of iterations =  2.0

     total cpu time spent up to now is       95.9 secs

     End of self-consistent calculation

          k = 0.0000 0.0000 0.0000 (  1046 PWs)   bands (ev):

   -19.0187 -18.5635 -15.2027 -15.0690 -14.1694 -14.1657  -8.3571  -7.2291
    -6.8802  -6.0219  -6.0214  -4.8496  -4.5787  -4.5754  -2.9796  -2.4995
    -2.4986  -1.8324  -0.0493   0.5650   0.5691   1.0367   1.0383   1.9024

     highest occupied level (ev):     1.9024

!    total energy              =    -175.74235106 Ry
     estimated scf accuracy    <          3.7E-10 Ry

     The total energy is the sum of the following terms:
     one-electron contribution =     -92.61254546 Ry
     hartree contribution      =      66.13470829 Ry
     xc contribution           =     -47.43871136 Ry
     ewald contribution        =    -101.75058115 Ry
     DFT-D3 Dispersion         =      -0.07522137 Ry

     convergence has been achieved in  11 iterations

     Forces acting on atoms (cartesian axes, Ry/au):

     atom    1 type  2   force =    -0.00007325   -0.00007431    0.00507606
     atom    2 type  4   force =     0.00008887   -0.00007843    0.00265724
     atom    3 type  3   force =     0.00004580    0.00009649   -0.00433913
     atom    4 type  1   force =    -0.00285142   -0.00288222    0.00094147
     atom    5 type  1   force =    -0.00065154   -0.00065753    0.00334804
     atom    6 type  3   force =     0.00009979   -0.00006927   -0.00428701
     atom    7 type  1   force =     0.00285179    0.00285929    0.00093111
     atom    8 type  1   force =     0.00064053    0.00068347    0.00328770
     atom    9 type  2   force =     0.00247268   -0.00249467   -0.00788310
     atom   10 type  4   force =    -0.00006052    0.00006139   -0.00088425
     atom   11 type  3   force =    -0.00095620    0.00106365    0.00401380
     atom   12 type  3   force =    -0.00234398    0.00221392    0.00685361
     atom   13 type  1   force =    -0.00274401    0.00270858   -0.00107580
     atom   14 type  1   force =     0.00320168   -0.00316057   -0.00091051
     atom   15 type  1   force =    -0.00051775    0.00049035   -0.00309254
     atom   16 type  1   force =     0.00079752   -0.00076012   -0.00463669

     Total force =     0.018682     Total SCF correction =     0.000041


     Computing stress (Cartesian axis) and pressure

          total   stress  (Ry/bohr**3)                   (kbar)     P=        0.00
  -0.00001954  -0.00000193  -0.00000422           -2.87       -0.28       -0.62
  -0.00000193  -0.00001961   0.00000406           -0.28       -2.89        0.60
  -0.00000422   0.00000406   0.00003925           -0.62        0.60        5.77

     Energy error            =      3.9E-04
     Gradient error          =      7.9E-03
     Cell gradient error     =      3.9E-05


     number of scf cycles    =   4
     number of bfgs steps    =   3

     enthalpy old            =    -175.7419567133 Ry
     enthalpy new            =    -175.7423510567 Ry

     CASE: enthalpy_new < enthalpy_old

     new trust radius        =       0.0132397114 bohr
     new conv_thr            =       0.0000000039 Ry

     new unit-cell volume =    789.76634 a.u.^3 (   117.03130 Ang^3 )
     density =      0.22702 g/cm^3

CELL_PARAMETERS (alat=  9.24800000)
   1.009683674  -0.000009378  -0.000210630
  -0.000009379   1.009620634   0.000206202
  -0.000204326   0.000200041   0.979516240

ATOMIC_POSITIONS (angstrom)
C            -0.0017824399        2.4698186572        1.4498042091
O            -0.0039338548        2.4714927727        2.7194526666
N             0.8297066678        3.2964516013        0.7956435635
H             1.4408197426        3.9098581678        1.3648598524
H             0.8805793429        3.3460305527       -0.2179875563
N            -0.8310939069        1.6413612044        0.7953644996
H            -1.4439704951        1.0297272544        1.3646792399
H            -0.8797531266        1.5894811141       -0.2182641383
C             2.4684945374       -0.0000219906        3.4265092339
O             2.4683753128        0.0006252687        2.1580980984
N             3.2950101979       -0.8300318924        4.0813008409
N             1.6401806870        0.8315134982        4.0822300463
H             3.9081298547       -1.4419169438        3.5117990060
H             1.0277616859        1.4428300295        3.5130453986
H             3.3460474652       -0.8796834142        5.0950180546
H             1.5894333183        0.8803084362        5.0951608485



     Writing output data file /tmp/urea.save/
     NEW-OLD atomic charge density approx. for the potential
     extrapolated charge   48.21685, renormalised to   48.00000

     total cpu time spent up to now is      115.2 secs

     Self-consistent Calculation

     iteration #  1     ecut=    30.00 Ry     beta= 0.70
     Davidson diagonalization with overlap
     ethr =  1.00E-06,  avg # of iterations =  6.0

     total cpu time spent up to now is      121.9 secs

     total energy              =    -175.73964418 Ry
     estimated scf accuracy    <       0.00203884 Ry

     iteration #  2     ecut=    30.00 Ry     beta= 0.70
     Davidson diagonalization with overlap
     ethr =  4.25E-06,  avg # of iterations =  6.0

     total cpu time spent up to now is      122.1 secs

     total energy              =    -175.74227992 Ry
     estimated scf accuracy    <       0.00826829 Ry

     iteration #  3     ecut=    30.00 Ry     beta= 0.70
     Davidson diagonalization with overlap
     ethr =  4.25E-06,  avg # of iterations =  4.0

     total cpu time spent up to now is      122.2 secs

     total energy              =    -175.74285917 Ry
     estimated scf accuracy    <       0.00129142 Ry

     iteration #  4     ecut=    30.00 Ry     beta= 0.70
     Davidson diagonalization with overlap
     ethr =  2.69E-06,  avg # of iterations =  1.0

     total cpu time spent up to now is      122.3 secs

     total energy              =    -175.74248183 Ry
     estimated scf accuracy    <       0.00097748 Ry

     iteration #  5     ecut=    30.00 Ry     beta= 0.70
     Davidson diagonalization with overlap
     ethr =  2.04E-06,  avg # of iterations =  2.0

     total cpu time spent up to now is      122.4 secs

     total energy              =    -175.74254062 Ry
     estimated scf accuracy    <       0.00011137 Ry

     iteration #  6     ecut=    30.00 Ry     beta= 0.70
     Davidson diagonalization with overlap
     ethr =  2.32E-07,  avg # of iterations =  3.0

     total cpu time spent up to now is      122.5 secs

     total energy              =    -175.74257386 Ry
     estimated scf accuracy    <       0.00000532 Ry

     iteration #  7     ecut=    30.00 Ry     beta= 0.70
     Davidson diagonalization with overlap
     ethr =  1.11E-08,  avg # of iterations =  5.0

     total cpu time spent up to now is      122.7 secs

     total energy              =    -175.74257527 Ry
     estimated scf accuracy    <       0.00000434 Ry

     iteration #  8     ecut=    30.00 Ry     beta= 0.70
     Davidson diagonalization with overlap
     ethr =  9.04E-09,  avg # of iterations =  2.0

     total cpu time spent up to now is      122.8 secs

     total energy              =    -175.74257451 Ry
     estimated scf accuracy    <       0.00000227 Ry

     iteration #  9     ecut=    30.00 Ry     beta= 0.70
     Davidson diagonalization with overlap
     ethr =  4.72E-09,  avg # of iterations =  4.0

     total cpu time spent up to now is      122.9 secs

     total energy              =    -175.74257497 Ry
     estimated scf accuracy    <       0.00000166 Ry

     iteration # 10     ecut=    30.00 Ry     beta= 0.70
     Davidson diagonalization with overlap
     ethr =  3.47E-09,  avg # of iterations =  2.0

     total cpu time spent up to now is      123.0 secs

     total energy              =    -175.74257464 Ry
     estimated scf accuracy    <       0.00000120 Ry

     iteration # 11     ecut=    30.00 Ry     beta= 0.70
     Davidson diagonalization with overlap
     ethr =  2.50E-09,  avg # of iterations =  2.0

     total cpu time spent up to now is      123.1 secs

     total energy              =    -175.74257474 Ry
     estimated scf accuracy    <       0.00000013 Ry

     iteration # 12     ecut=    30.00 Ry     beta= 0.70
     Davidson diagonalization with overlap
     ethr =  2.74E-10,  avg # of iterations =  4.0

     total cpu time spent up to now is      123.3 secs

     End of self-consistent calculation

          k = 0.0000 0.0000 0.0000 (  1046 PWs)   bands (ev):

   -19.0520 -18.6049 -15.2566 -15.1175 -14.2175 -14.2121  -8.3889  -7.2687
    -6.9263  -6.0828  -6.0817  -4.9154  -4.6012  -4.5964  -3.0296  -2.5455
    -2.5436  -1.9022  -0.0788   0.5414   0.5469   0.9987   1.0011   1.8565

     highest occupied level (ev):     1.8565

!    total energy              =    -175.74257478 Ry
     estimated scf accuracy    <          2.7E-09 Ry

     The total energy is the sum of the following terms:
     one-electron contribution =     -93.32593037 Ry
     hartree contribution      =      66.42090369 Ry
     xc contribution           =     -47.44680172 Ry
     ewald contribution        =    -101.31580870 Ry
     DFT-D3 Dispersion         =      -0.07493768 Ry

     convergence has been achieved in  12 iterations

     Forces acting on atoms (cartesian axes, Ry/au):

     atom    1 type  2   force =     0.00008064    0.00003382    0.00387464
     atom    2 type  4   force =    -0.00013965    0.00013722    0.00228571
     atom    3 type  3   force =    -0.00064658   -0.00049160    0.00236019
     atom    4 type  1   force =    -0.00169492   -0.00165129    0.00144410
     atom    5 type  1   force =    -0.00060430   -0.00060324   -0.00262788
     atom    6 type  3   force =     0.00053055    0.00041879    0.00227941
     atom    7 type  1   force =     0.00164470    0.00170845    0.00142439
     atom    8 type  1   force =     0.00060534    0.00062275   -0.00262201
     atom    9 type  2   force =    -0.00242377    0.00248018   -0.00036836
     atom   10 type  4   force =     0.00002513   -0.00001701   -0.00421024
     atom   11 type  3   force =     0.00059279   -0.00046499   -0.00241501
     atom   12 type  3   force =     0.00268637   -0.00280069   -0.00499732
     atom   13 type  1   force =    -0.00180762    0.00177583   -0.00113953
     atom   14 type  1   force =     0.00129098   -0.00127050   -0.00161086
     atom   15 type  1   force =    -0.00070696    0.00068906    0.00248845
     atom   16 type  1   force =     0.00056731   -0.00056679    0.00383430

     Total force =     0.013236     Total SCF correction =     0.000102


     Computing stress (Cartesian axis) and pressure

          total   stress  (Ry/bohr**3)                   (kbar)     P=        1.75
  -0.00002407   0.00000143   0.00000427           -3.54        0.21        0.63
   0.00000143  -0.00002408  -0.00000406            0.21       -3.54       -0.60
   0.00000427  -0.00000406   0.00008375            0.63       -0.60       12.32

     Energy error            =      2.2E-04
     Gradient error          =      5.0E-03
     Cell gradient error     =      8.4E-05


     number of scf cycles    =   5
     number of bfgs steps    =   4

     enthalpy old            =    -175.7423510567 Ry
     enthalpy new            =    -175.7425747753 Ry

     CASE: enthalpy_new < enthalpy_old

     new trust radius        =       0.0217576301 bohr
     new conv_thr            =       0.0000000022 Ry

     new unit-cell volume =    793.30069 a.u.^3 (   117.55503 Ang^3 )
     density =      0.22601 g/cm^3

CELL_PARAMETERS (alat=  9.24800000)
   1.009994682   0.000017130  -0.000152133
   0.000017129   1.009917928   0.000152901
  -0.000148349   0.000149094   0.983307205

ATOMIC_POSITIONS (angstrom)
C            -0.0015965231        2.4704644247        1.4590504330
O            -0.0037564023        2.4721122675        2.7280961449
N             0.8284605813        3.2959469703        0.7994203843
H             1.4373355241        3.9068804335        1.3699455265
H             0.8800032476        3.3461177407       -0.2153413342
N            -0.8296755198        1.6432117259        0.7990812640
H            -1.4402603718        1.0340659831        1.3696990106
H            -0.8790903870        1.5909215391       -0.2156469758
C             2.4685450708        0.0007959149        3.4377512859
O             2.4692025734        0.0006377460        2.1675075454
N             3.2951894709       -0.8291803390        4.0963823227
N             1.6432590467        0.8291080218        4.0961645875
H             3.9053026293       -1.4383095271        3.5259713132
H             1.0323125994        1.4391773712        3.5265558104
H             3.3464109419       -0.8792388025        5.1114176407
H             1.5911918945        0.8794374194        5.1117644629



     Writing output data file /tmp/urea.save/
     NEW-OLD atomic charge density approx. for the potential
     extrapolated charge   48.21042, renormalised to   48.00000

     total cpu time spent up to now is      143.0 secs

     Self-consistent Calculation

     iteration #  1     ecut=    30.00 Ry     beta= 0.70
     Davidson diagonalization with overlap
     ethr =  1.00E-06,  avg # of iterations =  6.0

     total cpu time spent up to now is      149.7 secs

     total energy              =    -175.73992116 Ry
     estimated scf accuracy    <       0.00192629 Ry

     iteration #  2     ecut=    30.00 Ry     beta= 0.70
     Davidson diagonalization with overlap
     ethr =  4.01E-06,  avg # of iterations =  5.0

     total cpu time spent up to now is      149.9 secs

     total energy              =    -175.74251717 Ry
     estimated scf accuracy    <       0.00734957 Ry

     iteration #  3     ecut=    30.00 Ry     beta= 0.70
     Davidson diagonalization with overlap
     ethr =  4.01E-06,  avg # of iterations =  4.0

     total cpu time spent up to now is      150.0 secs

     total energy              =    -175.74297296 Ry
     estimated scf accuracy    <       0.00124706 Ry

     iteration #  4     ecut=    30.00 Ry     beta= 0.70
     Davidson diagonalization with overlap
     ethr =  2.60E-06,  avg # of iterations =  1.0

     total cpu time spent up to now is      150.1 secs

     total energy              =    -175.74269476 Ry
     estimated scf accuracy    <       0.00083827 Ry

     iteration #  5     ecut=    30.00 Ry     beta= 0.70
     Davidson diagonalization with overlap
     ethr =  1.75E-06,  avg # of iterations =  2.0

     total cpu time spent up to now is      150.2 secs

     total energy              =    -175.74271639 Ry
     estimated scf accuracy    <       0.00011867 Ry

     iteration #  6     ecut=    30.00 Ry     beta= 0.70
     Davidson diagonalization with overlap
     ethr =  2.47E-07,  avg # of iterations =  4.0

     total cpu time spent up to now is      150.3 secs

     total energy              =    -175.74274940 Ry
     estimated scf accuracy    <       0.00000205 Ry

     iteration #  7     ecut=    30.00 Ry     beta= 0.70
     Davidson diagonalization with overlap
     ethr =  4.28E-09,  avg # of iterations =  6.0

     total cpu time spent up to now is      150.5 secs

     total energy              =    -175.74275071 Ry
     estimated scf accuracy    <       0.00000286 Ry

     iteration #  8     ecut=    30.00 Ry     beta= 0.70
     Davidson diagonalization with overlap
     ethr =  4.28E-09,  avg # of iterations =  2.0

     total cpu time spent up to now is      150.6 secs

     total energy              =    -175.74275006 Ry
     estimated scf accuracy    <       0.00000118 Ry

     iteration #  9     ecut=    30.00 Ry     beta= 0.70
     Davidson diagonalization with overlap
     ethr =  2.45E-09,  avg # of iterations =  3.0

     total cpu time spent up to now is      150.7 secs

     total energy              =    -175.74275046 Ry
     estimated scf accuracy    <       0.00000019 Ry

     iteration # 10     ecut=    30.00 Ry     beta= 0.70
     Davidson diagonalization with overlap
     ethr =  4.02E-10,  avg # of iterations =  2.0

     total cpu time spent up to now is      150.8 secs

     total energy              =    -175.74275047 Ry
     estimated scf accuracy    <       0.00000002 Ry

     iteration # 11     ecut=    30.00 Ry     beta= 0.70
     Davidson diagonalization with overlap
     ethr =  5.03E-11,  avg # of iterations =  2.0

     total cpu time spent up to now is      151.0 secs

     End of self-consistent calculation

          k = 0.0000 0.0000 0.0000 (  1046 PWs)   bands (ev):

   -19.0640 -18.6202 -15.2969 -15.1631 -14.2479 -14.2417  -8.4148  -7.3028
    -6.9435  -6.1128  -6.1122  -4.9746  -4.6076  -4.6013  -3.0653  -2.5827
    -2.5810  -1.9534  -0.1010   0.5179   0.5245   0.9671   0.9698   1.8116

     highest occupied level (ev):     1.8116

!    total energy              =    -175.74275047 Ry
     estimated scf accuracy    <          1.7E-09 Ry

     The total energy is the sum of the following terms:
     one-electron contribution =     -93.78218360 Ry
     hartree contribution      =      66.58924007 Ry
     xc contribution           =     -47.43684612 Ry
     ewald contribution        =    -101.03830695 Ry
     DFT-D3 Dispersion         =      -0.07465387 Ry

     convergence has been achieved in  11 iterations

     Forces acting on atoms (cartesian axes, Ry/au):

     atom    1 type  2   force =    -0.00006450   -0.00003907   -0.00102960
     atom    2 type  4   force =     0.00005565   -0.00006340    0.00081487
     atom    3 type  3   force =    -0.00130880   -0.00121295    0.00280885
     atom    4 type  1   force =     0.00049346    0.00049012    0.00175108
     atom    5 type  1   force =    -0.00103872   -0.00102896   -0.00032698
     atom    6 type  3   force =     0.00143923    0.00122521    0.00284900
     atom    7 type  1   force =    -0.00050644   -0.00051409    0.00175319
     atom    8 type  1   force =     0.00104132    0.00104263   -0.00037695
     atom    9 type  2   force =     0.00190758   -0.00192607   -0.00301680
     atom   10 type  4   force =    -0.00001778    0.00003233    0.00171700
     atom   11 type  3   force =    -0.00190286    0.00204287   -0.00194705
     atom   12 type  3   force =    -0.00079810    0.00064286   -0.00020376
     atom   13 type  1   force =     0.00066344   -0.00067183   -0.00206606
     atom   14 type  1   force =    -0.00017052    0.00018349   -0.00176016
     atom   15 type  1   force =    -0.00090063    0.00090051   -0.00001981
     atom   16 type  1   force =     0.00110767   -0.00110365   -0.00094683

     Total force =     0.009031     Total SCF correction =     0.000075


     Computing stress (Cartesian axis) and pressure

          total   stress  (Ry/bohr**3)                   (kbar)     P=       -1.17
  -0.00000997  -0.00000234  -0.00000334           -1.47       -0.34       -0.49
  -0.00000234  -0.00000988   0.00000315           -0.34       -1.45        0.46
  -0.00000334   0.00000315  -0.00000402           -0.49        0.46       -0.59

     Energy error            =      1.8E-04
     Gradient error          =      3.0E-03
     Cell gradient error     =      1.0E-05


     number of scf cycles    =   6
     number of bfgs steps    =   5

     enthalpy old            =    -175.7425747753 Ry
     enthalpy new            =    -175.7427504738 Ry

     CASE: enthalpy_new < enthalpy_old

     new trust radius        =       0.0047106506 bohr
     new conv_thr            =       0.0000000018 Ry

     new unit-cell volume =    793.06477 a.u.^3 (   117.52007 Ang^3 )
     density =      0.22608 g/cm^3

CELL_PARAMETERS (alat=  9.24800000)
   1.009620308  -0.000028427  -0.000204834
  -0.000028431   1.009544287   0.000202738
  -0.000199339   0.000197314   0.983743280

ATOMIC_POSITIONS (angstrom)
C            -0.0018042037        2.4696059251        1.4606553839
O            -0.0039999075        2.4713187229        2.7295243071
N             0.8270703322        3.2939225152        0.8013061580
H             1.4361890838        3.9050765986        1.3717760919
H             0.8788238651        3.3441207489       -0.2150803489
N            -0.8285412783        1.6434823522        0.8009779678
H            -1.4394971132        1.0341764480        1.3715316567
H            -0.8781127876        1.5910861495       -0.2154082632
C             2.4680786106        0.0002258501        3.4368164852
O             2.4681624429        0.0006537403        2.1692310554
N             3.2927800759       -0.8277028457        4.0969734886
N             1.6425067813        0.8287100857        4.0974519807
H             3.9034408340       -1.4375005826        3.5260478917
H             1.0321580431        1.4383119683        3.5269963517
H             3.3442898153       -0.8781666652        5.1130539456
H             1.5910473705        0.8785487300        5.1132797915



     Writing output data file /tmp/urea.save/
     NEW-OLD atomic charge density approx. for the potential
     extrapolated charge   47.98595, renormalised to   48.00000

     total cpu time spent up to now is      170.2 secs

     Self-consistent Calculation

     iteration #  1     ecut=    30.00 Ry     beta= 0.70
     Davidson diagonalization with overlap
     ethr =  1.00E-06,  avg # of iterations =  3.0

     Threshold (ethr) on eigenvalues was too large:
     Diagonalizing with lowered threshold

     Davidson diagonalization with overlap
     ethr =  9.51E-08,  avg # of iterations =  4.0

     total cpu time spent up to now is      176.9 secs

     total energy              =    -175.74275112 Ry
     estimated scf accuracy    <       0.00005688 Ry

     iteration #  2     ecut=    30.00 Ry     beta= 0.70
     Davidson diagonalization with overlap
     ethr =  1.19E-07,  avg # of iterations =  5.0

     total cpu time spent up to now is      177.1 secs

     total energy              =    -175.74277695 Ry
     estimated scf accuracy    <       0.00004936 Ry

     iteration #  3     ecut=    30.00 Ry     beta= 0.70
     Davidson diagonalization with overlap
     ethr =  1.03E-07,  avg # of iterations =  3.0

     total cpu time spent up to now is      177.2 secs

     total energy              =    -175.74278274 Ry
     estimated scf accuracy    <       0.00000341 Ry

     iteration #  4     ecut=    30.00 Ry     beta= 0.70
     Davidson diagonalization with overlap
     ethr =  7.11E-09,  avg # of iterations =  2.0

     total cpu time spent up to now is      177.3 secs

     total energy              =    -175.74278365 Ry
     estimated scf accuracy    <       0.00000030 Ry

     iteration #  5     ecut=    30.00 Ry     beta= 0.70
     Davidson diagonalization with overlap
     ethr =  6.16E-10,  avg # of iterations =  5.0

     total cpu time spent up to now is      177.5 secs

     total energy              =    -175.74278376 Ry
     estimated scf accuracy    <       0.00000013 Ry

     iteration #  6     ecut=    30.00 Ry     beta= 0.70
     Davidson diagonalization with overlap
     ethr =  2.66E-10,  avg # of iterations =  2.0

     total cpu time spent up to now is      177.6 secs

     total energy              =    -175.74278376 Ry
     estimated scf accuracy    <       0.00000004 Ry

     iteration #  7     ecut=    30.00 Ry     beta= 0.70
     Davidson diagonalization with overlap
     ethr =  7.44E-11,  avg # of iterations =  2.0

     total cpu time spent up to now is      177.7 secs

     total energy              =    -175.74278376 Ry
     estimated scf accuracy    <          2.2E-09 Ry

     iteration #  8     ecut=    30.00 Ry     beta= 0.70
     Davidson diagonalization with overlap
     ethr =  4.67E-12,  avg # of iterations =  5.0

     total cpu time spent up to now is      177.8 secs

     End of self-consistent calculation

          k = 0.0000 0.0000 0.0000 (  1046 PWs)   bands (ev):

   -19.0777 -18.6359 -15.3009 -15.1679 -14.2406 -14.2351  -8.4112  -7.2959
    -6.9349  -6.1090  -6.1083  -4.9694  -4.5991  -4.5945  -3.0696  -2.5847
    -2.5827  -1.9533  -0.0932   0.5172   0.5221   0.9679   0.9698   1.8150

     highest occupied level (ev):     1.8150

!    total energy              =    -175.74278376 Ry
     estimated scf accuracy    <          1.7E-09 Ry

     The total energy is the sum of the following terms:
     one-electron contribution =     -93.84393211 Ry
     hartree contribution      =      66.62404801 Ry
     xc contribution           =     -47.44059379 Ry
     ewald contribution        =    -101.00763526 Ry
     DFT-D3 Dispersion         =      -0.07467063 Ry

     convergence has been achieved in   8 iterations

     Forces acting on atoms (cartesian axes, Ry/au):

     atom    1 type  2   force =     0.00002570    0.00002584    0.00041975
     atom    2 type  4   force =    -0.00008723    0.00007189    0.00159014
     atom    3 type  3   force =     0.00124015    0.00138833   -0.00079496
     atom    4 type  1   force =     0.00024883    0.00028950    0.00124884
     atom    5 type  1   force =    -0.00112460   -0.00110502    0.00239045
     atom    6 type  3   force =    -0.00126967   -0.00144948   -0.00083789
     atom    7 type  1   force =    -0.00028035   -0.00025786    0.00123176
     atom    8 type  1   force =     0.00112200    0.00112566    0.00239377
     atom    9 type  2   force =    -0.00111185    0.00113445    0.00329442
     atom   10 type  4   force =     0.00005051   -0.00003318   -0.00365036
     atom   11 type  3   force =     0.00165311   -0.00149899   -0.00035554
     atom   12 type  3   force =    -0.00008794   -0.00005603   -0.00125270
     atom   13 type  1   force =     0.00016179   -0.00016827   -0.00099058
     atom   14 type  1   force =    -0.00047280    0.00047383   -0.00128095
     atom   15 type  1   force =    -0.00116085    0.00116004   -0.00192743
     atom   16 type  1   force =     0.00109320   -0.00110070   -0.00147873

     Total force =     0.008864     Total SCF correction =     0.000096


     Computing stress (Cartesian axis) and pressure

          total   stress  (Ry/bohr**3)                   (kbar)     P=        0.04
   0.00000310   0.00000194   0.00000200            0.46        0.28        0.29
   0.00000194   0.00000316  -0.00000193            0.28        0.47       -0.28
   0.00000200  -0.00000193  -0.00000549            0.29       -0.28       -0.81

     Energy error            =      3.3E-05
     Gradient error          =      3.7E-03
     Cell gradient error     =      5.5E-06


     number of scf cycles    =   7
     number of bfgs steps    =   6

     enthalpy old            =    -175.7427504738 Ry
     enthalpy new            =    -175.7427837634 Ry

     CASE: enthalpy_new < enthalpy_old

     new trust radius        =       0.0029407989 bohr
     new conv_thr            =       0.0000000010 Ry

     new unit-cell volume =    792.67502 a.u.^3 (   117.46232 Ang^3 )
     density =      0.22619 g/cm^3

CELL_PARAMETERS (alat=  9.24800000)
   1.009393115  -0.000019594  -0.000202283
  -0.000019597   1.009319941   0.000199431
  -0.000196901   0.000194146   0.983699732

ATOMIC_POSITIONS (angstrom)
C            -0.0017841334        2.4690531459        1.4610348109
O            -0.0040009737        2.4707820539        2.7304374515
N             0.8270239293        3.2934116757        0.8017252831
H             1.4360390167        3.9043733691        1.3729850633
H             0.8777659462        3.3425102590       -0.2141499937
N            -0.8284241145        1.6428623675        0.8013871390
H            -1.4393186532        1.0337840368        1.3727348819
H            -0.8770142666        1.5916173427       -0.2144917877
C             2.4675249816        0.0002509593        3.4367909025
O             2.4676313194        0.0006623485        2.1678813423
N             3.2922069967       -0.8275446309        4.0960823485
N             1.6419858867        0.8285719072        4.0965846387
H             3.9027074365       -1.4373146280        3.5246597494
H             1.0317923633        1.4381505753        3.5255329316
H             3.3426768929       -0.8770952234        5.1120040271
H             1.5916069509        0.8774520838        5.1121857199



     Writing output data file /tmp/urea.save/
     NEW-OLD atomic charge density approx. for the potential
     extrapolated charge   47.97678, renormalised to   48.00000

     total cpu time spent up to now is      197.0 secs

     Self-consistent Calculation

     iteration #  1     ecut=    30.00 Ry     beta= 0.70
     Davidson diagonalization with overlap
     ethr =  1.00E-06,  avg # of iterations =  2.0

     Threshold (ethr) on eigenvalues was too large:
     Diagonalizing with lowered threshold

     Davidson diagonalization with overlap
     ethr =  5.77E-08,  avg # of iterations =  4.0

     total cpu time spent up to now is      203.7 secs

     total energy              =    -175.74279170 Ry
     estimated scf accuracy    <       0.00003522 Ry

     iteration #  2     ecut=    30.00 Ry     beta= 0.70
     Davidson diagonalization with overlap
     ethr =  7.34E-08,  avg # of iterations =  5.0

     total cpu time spent up to now is      203.9 secs

     total energy              =    -175.74282537 Ry
     estimated scf accuracy    <       0.00008508 Ry

     iteration #  3     ecut=    30.00 Ry     beta= 0.70
     Davidson diagonalization with overlap
     ethr =  7.34E-08,  avg # of iterations =  3.0

     total cpu time spent up to now is      204.0 secs

     total energy              =    -175.74282997 Ry
     estimated scf accuracy    <       0.00001182 Ry

     iteration #  4     ecut=    30.00 Ry     beta= 0.70
     Davidson diagonalization with overlap
     ethr =  2.46E-08,  avg # of iterations =  2.0

     total cpu time spent up to now is      204.1 secs

     total energy              =    -175.74282916 Ry
     estimated scf accuracy    <       0.00000345 Ry

     iteration #  5     ecut=    30.00 Ry     beta= 0.70
     Davidson diagonalization with overlap
     ethr =  7.19E-09,  avg # of iterations =  3.0

     total cpu time spent up to now is      204.2 secs

     total energy              =    -175.74283024 Ry
     estimated scf accuracy    <       0.00000017 Ry

     iteration #  6     ecut=    30.00 Ry     beta= 0.70
     Davidson diagonalization with overlap
     ethr =  3.46E-10,  avg # of iterations =  4.0

     total cpu time spent up to now is      204.3 secs

     total energy              =    -175.74283020 Ry
     estimated scf accuracy    <       0.00000012 Ry

     iteration #  7     ecut=    30.00 Ry     beta= 0.70
     Davidson diagonalization with overlap
     ethr =  2.42E-10,  avg # of iterations =  2.0

     total cpu time spent up to now is      204.5 secs

     total energy              =    -175.74283022 Ry
     estimated scf accuracy    <          2.1E-09 Ry

     iteration #  8     ecut=    30.00 Ry     beta= 0.70
     Davidson diagonalization with overlap
     ethr =  4.42E-12,  avg # of iterations =  5.0

     total cpu time spent up to now is      204.6 secs

     total energy              =    -175.74283022 Ry
     estimated scf accuracy    <          2.8E-09 Ry

     iteration #  9     ecut=    30.00 Ry     beta= 0.70
     Davidson diagonalization with overlap
     ethr =  4.42E-12,  avg # of iterations =  2.0

     total cpu time spent up to now is      204.7 secs

     End of self-consistent calculation

          k = 0.0000 0.0000 0.0000 (  1046 PWs)   bands (ev):

   -19.0677 -18.6232 -15.2967 -15.1673 -14.2372 -14.2360  -8.4083  -7.2894
    -6.9358  -6.1047  -6.1042  -4.9706  -4.5988  -4.5982  -3.0622  -2.5771
    -2.5761  -1.9461  -0.0905   0.5238   0.5245   0.9731   0.9733   1.8170

     highest occupied level (ev):     1.8170

!    total energy              =    -175.74283023 Ry
     estimated scf accuracy    <          6.7E-11 Ry

     The total energy is the sum of the following terms:
     one-electron contribution =     -93.76763739 Ry
     hartree contribution      =      66.59354202 Ry
     xc contribution           =     -47.44141710 Ry
     ewald contribution        =    -101.05261676 Ry
     DFT-D3 Dispersion         =      -0.07470099 Ry

     convergence has been achieved in   9 iterations

     Forces acting on atoms (cartesian axes, Ry/au):

     atom    1 type  2   force =     0.00002223    0.00002613    0.00115408
     atom    2 type  4   force =    -0.00007652    0.00005999    0.00046614
     atom    3 type  3   force =     0.00094809    0.00107455    0.00051571
     atom    4 type  1   force =     0.00029014    0.00033733    0.00086755
     atom    5 type  1   force =    -0.00082479   -0.00080400    0.00145513
     atom    6 type  3   force =    -0.00098423   -0.00112905    0.00047635
     atom    7 type  1   force =    -0.00031594   -0.00030341    0.00084546
     atom    8 type  1   force =     0.00082609    0.00081834    0.00146285
     atom    9 type  2   force =    -0.00108631    0.00110692   -0.00003999
     atom   10 type  4   force =     0.00003813   -0.00002218   -0.00113747
     atom   11 type  3   force =     0.00166852   -0.00153987   -0.00037668
     atom   12 type  3   force =    -0.00014755    0.00003055   -0.00147087
     atom   13 type  1   force =     0.00019518   -0.00019279   -0.00075464
     atom   14 type  1   force =    -0.00046857    0.00046166   -0.00097462
     atom   15 type  1   force =    -0.00083781    0.00084268   -0.00152553
     atom   16 type  1   force =     0.00075335   -0.00076684   -0.00096346

     Total force =     0.005846     Total SCF correction =     0.000019


     Computing stress (Cartesian axis) and pressure

          total   stress  (Ry/bohr**3)                   (kbar)     P=        0.27
   0.00000675   0.00000053   0.00000188            0.99        0.08        0.28
   0.00000053   0.00000679  -0.00000180            0.08        1.00       -0.26
   0.00000188  -0.00000180  -0.00000797            0.28       -0.26       -1.17

     Energy error            =      4.6E-05
     Gradient error          =      1.7E-03
     Cell gradient error     =      8.0E-06


     number of scf cycles    =   8
     number of bfgs steps    =   7

     enthalpy old            =    -175.7427837634 Ry
     enthalpy new            =    -175.7428302250 Ry

     CASE: enthalpy_new < enthalpy_old

     new trust radius        =       0.0044105210 bohr
     new conv_thr            =       0.0000000010 Ry

     new unit-cell volume =    792.76711 a.u.^3 (   117.47597 Ang^3 )
     density =      0.22616 g/cm^3

CELL_PARAMETERS (alat=  9.24800000)
   1.009363857  -0.000026869  -0.000191711
  -0.000026873   1.009292934   0.000188616
  -0.000186761   0.000183769   0.983868845

ATOMIC_POSITIONS (angstrom)
C            -0.0017914834        2.4689742118        1.4620715825
O            -0.0040344266        2.4707151542        2.7318247109
N             0.8270623459        3.2935497780        0.8031125567
H             1.4358930222        3.9041890577        1.3747208948
H             0.8764745118        3.3411965503       -0.2126604006
N            -0.8284591933        1.6425346029        0.8027544615
H            -1.4392140249        1.0338291975        1.3744512033
H            -0.8757646768        1.5928283928       -0.2130206371
C             2.4673457416        0.0003520109        3.4366212211
O             2.4676011879        0.0006214950        2.1674235725
N             3.2925285123       -0.8277753656        4.0956670588
N             1.6417973861        0.8284921596        4.0959705402
H             3.9025430182       -1.4372565852        3.5238125526
H             1.0318507717        1.4380155266        3.5245246333
H             3.3414398901       -0.8759547755        5.1113204580
H             1.5928365001        0.8761323135        5.1115214483



     Writing output data file /tmp/urea.save/
     NEW-OLD atomic charge density approx. for the potential
     extrapolated charge   48.00549, renormalised to   48.00000

     total cpu time spent up to now is      223.9 secs

     Self-consistent Calculation

     iteration #  1     ecut=    30.00 Ry     beta= 0.70
     Davidson diagonalization with overlap
     ethr =  1.00E-06,  avg # of iterations =  2.0

     Threshold (ethr) on eigenvalues was too large:
     Diagonalizing with lowered threshold

     Davidson diagonalization with overlap
     ethr =  2.04E-08,  avg # of iterations =  3.0

     total cpu time spent up to now is      230.6 secs

     total energy              =    -175.74287511 Ry
     estimated scf accuracy    <       0.00001127 Ry

     iteration #  2     ecut=    30.00 Ry     beta= 0.70
     Davidson diagonalization with overlap
     ethr =  2.35E-08,  avg # of iterations =  3.0

     total cpu time spent up to now is      230.8 secs

     total energy              =    -175.74287590 Ry
     estimated scf accuracy    <       0.00000470 Ry

     iteration #  3     ecut=    30.00 Ry     beta= 0.70
     Davidson diagonalization with overlap
     ethr =  9.79E-09,  avg # of iterations =  4.0

     total cpu time spent up to now is      230.9 secs

     total energy              =    -175.74287703 Ry
     estimated scf accuracy    <       0.00000089 Ry

     iteration #  4     ecut=    30.00 Ry     beta= 0.70
     Davidson diagonalization with overlap
     ethr =  1.85E-09,  avg # of iterations =  4.0

     total cpu time spent up to now is      231.0 secs

     total energy              =    -175.74287720 Ry
     estimated scf accuracy    <       0.00000007 Ry

     iteration #  5     ecut=    30.00 Ry     beta= 0.70
     Davidson diagonalization with overlap
     ethr =  1.37E-10,  avg # of iterations =  2.0

     total cpu time spent up to now is      231.1 secs

     total energy              =    -175.74287721 Ry
     estimated scf accuracy    <          1.9E-09 Ry

     iteration #  6     ecut=    30.00 Ry     beta= 0.70
     Davidson diagonalization with overlap
     ethr =  3.87E-12,  avg # of iterations =  5.0

     total cpu time spent up to now is      231.3 secs

     total energy              =    -175.74287721 Ry
     estimated scf accuracy    <          1.4E-09 Ry

     iteration #  7     ecut=    30.00 Ry     beta= 0.70
     Davidson diagonalization with overlap
     ethr =  2.89E-12,  avg # of iterations =  3.0

     total cpu time spent up to now is      231.4 secs

     End of self-consistent calculation

          k = 0.0000 0.0000 0.0000 (  1046 PWs)   bands (ev):

   -19.0667 -18.6211 -15.2961 -15.1703 -14.2397 -14.2383  -8.4072  -7.2873
    -6.9368  -6.1025  -6.1021  -4.9789  -4.6066  -4.6061  -3.0603  -2.5767
    -2.5757  -1.9469  -0.0896   0.5236   0.5243   0.9727   0.9728   1.8134

     highest occupied level (ev):     1.8134

!    total energy              =    -175.74287721 Ry
     estimated scf accuracy    <          8.7E-11 Ry

     The total energy is the sum of the following terms:
     one-electron contribution =     -93.78321758 Ry
     hartree contribution      =      66.60009109 Ry
     xc contribution           =     -47.44211527 Ry
     ewald contribution        =    -101.04294445 Ry
     DFT-D3 Dispersion         =      -0.07469100 Ry

     convergence has been achieved in   7 iterations

     Forces acting on atoms (cartesian axes, Ry/au):

     atom    1 type  2   force =     0.00000082    0.00001392    0.00204705
     atom    2 type  4   force =    -0.00003975    0.00002269   -0.00017416
     atom    3 type  3   force =     0.00023177    0.00031311    0.00056366
     atom    4 type  1   force =     0.00053835    0.00058662    0.00071456
     atom    5 type  1   force =    -0.00044700   -0.00042291    0.00111945
     atom    6 type  3   force =    -0.00023393   -0.00034735    0.00054211
     atom    7 type  1   force =    -0.00055508   -0.00056483    0.00069300
     atom    8 type  1   force =     0.00045111    0.00042997    0.00112209
     atom    9 type  2   force =    -0.00038357    0.00039179   -0.00075536
     atom   10 type  4   force =     0.00002262   -0.00000902   -0.00065397
     atom   11 type  3   force =     0.00037485   -0.00028611   -0.00087028
     atom   12 type  3   force =     0.00018795   -0.00026834   -0.00130078
     atom   13 type  1   force =     0.00052577   -0.00050930   -0.00066404
     atom   14 type  1   force =    -0.00063133    0.00061343   -0.00073146
     atom   15 type  1   force =    -0.00042617    0.00044059   -0.00092772
     atom   16 type  1   force =     0.00038358   -0.00040428   -0.00072416

     Total force =     0.004374     Total SCF correction =     0.000012


     Computing stress (Cartesian axis) and pressure

          total   stress  (Ry/bohr**3)                   (kbar)     P=        0.44
   0.00000766   0.00000074   0.00000059            1.13        0.11        0.09
   0.00000074   0.00000767  -0.00000056            0.11        1.13       -0.08
   0.00000059  -0.00000056  -0.00000638            0.09       -0.08       -0.94

     Energy error            =      4.7E-05
     Gradient error          =      2.0E-03
     Cell gradient error     =      7.7E-06


     number of scf cycles    =   9
     number of bfgs steps    =   8

     enthalpy old            =    -175.7428302250 Ry
     enthalpy new            =    -175.7428772128 Ry

     CASE: enthalpy_new < enthalpy_old

     new trust radius        =       0.0066163469 bohr
     new conv_thr            =       0.0000000010 Ry

     new unit-cell volume =    793.33442 a.u.^3 (   117.56003 Ang^3 )
     density =      0.22600 g/cm^3

CELL_PARAMETERS (alat=  9.24800000)
   1.009494222  -0.000020124  -0.000201088
  -0.000020128   1.009424882   0.000196734
  -0.000195941   0.000191729   0.984317092

ATOMIC_POSITIONS (angstrom)
C            -0.0018040053        2.4693079887        1.4645550169
O            -0.0040941980        2.4710844814        2.7340343192
N             0.8269355722        3.2939731841        0.8053689381
H             1.4359319677        3.9046174001        1.3774807094
H             0.8749226492        3.3399800260       -0.2101571141
N            -0.8282687779        1.6427167351        0.8049875733
H            -1.4392952946        1.0340989745        1.3771800665
H            -0.8741779900        1.5947224780       -0.2105446289
C             2.4676827472        0.0003584322        3.4369557927
O             2.4679191186        0.0006636776        2.1672146659
N             3.2928109539       -0.8274687805        4.0954048557
N             1.6420157725        0.8283499276        4.0957536193
H             3.9028650194       -1.4372648259        3.5232776521
H             1.0321037743        1.4381075595        3.5239410440
H             3.3402038663       -0.8743941253        5.1111645264
H             1.5946732004        0.8746207222        5.1113291968



     Writing output data file /tmp/urea.save/
     NEW-OLD atomic charge density approx. for the potential
     extrapolated charge   48.03377, renormalised to   48.00000

     total cpu time spent up to now is      250.6 secs

     Self-consistent Calculation

     iteration #  1     ecut=    30.00 Ry     beta= 0.70
     Davidson diagonalization with overlap
     ethr =  1.00E-06,  avg # of iterations =  3.0

     total cpu time spent up to now is      257.2 secs

     total energy              =    -175.74286096 Ry
     estimated scf accuracy    <       0.00005427 Ry

     iteration #  2     ecut=    30.00 Ry     beta= 0.70
[...]
     Davidson diagonalization with overlap
     ethr =  6.24E-12,  avg # of iterations =  5.0

     total cpu time spent up to now is      394.6 secs

     total energy              =    -175.74307414 Ry
     estimated scf accuracy    <          2.2E-09 Ry

     iteration #  8     ecut=    30.00 Ry     beta= 0.70
     Davidson diagonalization with overlap
     ethr =  4.51E-12,  avg # of iterations =  2.0

     total cpu time spent up to now is      394.7 secs

     End of self-consistent calculation

          k = 0.0000 0.0000 0.0000 (  1046 PWs)   bands (ev):

   -19.1096 -18.6667 -15.3258 -15.2326 -14.2661 -14.2644  -8.4532  -7.3023
    -6.9588  -6.1270  -6.1255  -5.0264  -4.6661  -4.6640  -3.1033  -2.6071
    -2.6064  -1.9886  -0.0878   0.4800   0.4820   0.9339   0.9353   1.7547

     highest occupied level (ev):     1.7547

!    total energy              =    -175.74307414 Ry
     estimated scf accuracy    <          2.9E-10 Ry

     The total energy is the sum of the following terms:
     one-electron contribution =     -94.51511415 Ry
     hartree contribution      =      66.90011177 Ry
     xc contribution           =     -47.44226879 Ry
     ewald contribution        =    -100.61145302 Ry
     DFT-D3 Dispersion         =      -0.07434996 Ry

     convergence has been achieved in   8 iterations

     Forces acting on atoms (cartesian axes, Ry/au):

     atom    1 type  2   force =     0.00000721    0.00000532   -0.00008912
     atom    2 type  4   force =    -0.00001408    0.00000626   -0.00015246
     atom    3 type  3   force =     0.00027525    0.00024507    0.00012682
     atom    4 type  1   force =    -0.00005102    0.00002147    0.00001388
     atom    5 type  1   force =     0.00009195    0.00012704    0.00011317
     atom    6 type  3   force =    -0.00027520   -0.00026483    0.00011284
     atom    7 type  1   force =     0.00005384   -0.00001733    0.00000769
     atom    8 type  1   force =    -0.00006867   -0.00014834    0.00010472
     atom    9 type  2   force =    -0.00000555    0.00000701    0.00027077
     atom   10 type  4   force =     0.00000045   -0.00000303    0.00005751
     atom   11 type  3   force =     0.00022944   -0.00025557   -0.00012336
     atom   12 type  3   force =    -0.00022282    0.00025875   -0.00001320
     atom   13 type  1   force =     0.00003115    0.00003533   -0.00002534
     atom   14 type  1   force =    -0.00005071   -0.00001229   -0.00007270
     atom   15 type  1   force =     0.00014459   -0.00009797   -0.00014229
     atom   16 type  1   force =    -0.00014584    0.00009312   -0.00018893

     Total force =     0.000937     Total SCF correction =     0.000029


     Computing stress (Cartesian axis) and pressure

          total   stress  (Ry/bohr**3)                   (kbar)     P=       -0.14
  -0.00000215  -0.00000020   0.00000012           -0.32       -0.03        0.02
  -0.00000020  -0.00000221  -0.00000009           -0.03       -0.33       -0.01
   0.00000012  -0.00000009   0.00000146            0.02       -0.01        0.21

     Energy error            =      1.0E-05
     Gradient error          =      2.8E-04
     Cell gradient error     =      2.2E-06


     bfgs converged in  15 scf cycles and  14 bfgs steps
     (criteria: energy <  1.0E-04 Ry, force <  1.0E-03Ry/Bohr, cell <  5.0E-01kbar)

     End of BFGS Geometry Optimization

     Final enthalpy =    -175.7430741442 Ry

     File /tmp/urea.bfgs deleted, as requested
Begin final coordinates
     new unit-cell volume =    796.58492 a.u.^3 (   118.04171 Ang^3 )
     density =      0.22508 g/cm^3

CELL_PARAMETERS (alat=  9.24800000)
   1.010639403  -0.000033174  -0.000245477
  -0.000033177   1.010560394   0.000238894
  -0.000239024   0.000232653   0.986120907

ATOMIC_POSITIONS (angstrom)
C            -0.0019589166        2.4721396953        1.4804694078
O            -0.0045896999        2.4741025760        2.7496641712
N             0.8258374243        3.2966219946        0.8198178577
H             1.4378509665        3.9101972932        1.3862529655
H             0.8710375057        3.3392759458       -0.1956834567
N            -0.8270514361        1.6454299069        0.8192709874
H            -1.4416384732        1.0343619622        1.3857080796
H            -0.8702665579        1.6010248034       -0.1962350397
C             2.4702887427        0.0005916382        3.4300541783
O             2.4707332641        0.0007446592        2.1608437440
N             3.2955666441       -0.8264373422        4.0904257548
N             1.6448042468        0.8273686864        4.0904529128
H             3.9078347208       -1.4391072468        3.5231219985
H             1.0323665995        1.4402410014        3.5238385998
H             3.3396520491       -0.8708042464        5.1058423571
H             1.6003776114        0.8713102210        5.1059093388
End final coordinates



     Writing output data file /tmp/urea.save/

     Final scf calculation at the relaxed structure.
     The G-vectors are recalculated for the final unit cell
     Results may differ from those at the preceding step.

     Parallelization info
     --------------------
     sticks:   dense  smooth     PW     G-vecs:    dense   smooth      PW
     Min         833     419    105                25039     8840    1099
     Max         836     426    108                25040     8841    1104
     Sum        1669     845    213                50079    17681    2203



     bravais-lattice index     =            6
     lattice parameter (alat)  =       9.2480  a.u.
     unit-cell volume          =     796.5849 (a.u.)^3
     number of atoms/cell      =           16
     number of atomic types    =            4
     number of electrons       =        48.00
     number of Kohn-Sham states=           24
     kinetic-energy cutoff     =      30.0000  Ry
     charge density cutoff     =     240.0000  Ry
     scf convergence threshold =      1.0E-09
     mixing beta               =       0.7000
     number of iterations used =            8  plain     mixing
     press convergence thresh. =      5.0E-01
     Exchange-correlation=  SLA  PW   PBE  PBE
                           (   1   4   3   4   0   0   0)

     celldm(1)=   9.248000  celldm(2)=   0.000000  celldm(3)=   0.970000
     celldm(4)=   0.000000  celldm(5)=   0.000000  celldm(6)=   0.000000

     crystal axes: (cart. coord. in units of alat)
               a(1) = (   1.010639  -0.000033  -0.000245 )  
               a(2) = (  -0.000033   1.010560   0.000239 )  
               a(3) = (  -0.000239   0.000233   0.986121 )  

     reciprocal axes: (cart. coord. in units 2 pi/alat)
               b(1) = (  0.989473  0.000032  0.000240 )  
               b(2) = (  0.000032  0.989550 -0.000233 )  
               b(3) = (  0.000246 -0.000240  1.014075 )  


     PseudoPot. # 1 for H  read from file:
     /home/user/QE-2021/pseudo/H.pbe-rrkjus.UPF
     MD5 check sum: 7cc9d459525c9a0585f487a71c3c9563
     Pseudo is Ultrasoft, Zval =  1.0
     Generated by new atomic code, or converted to UPF format
     Using radial grid of 1061 points,  2 beta functions with: 
                l(1) =   0
                l(2) =   0
     Q(r) pseudized with 0 coefficients 


     PseudoPot. # 2 for C  read from file:
     /home/user/QE-2021/pseudo/C.pbe-rrkjus.UPF
     MD5 check sum: 00fb224312de0c5b6853bd333518df6f
     Pseudo is Ultrasoft, Zval =  4.0
     Generated by new atomic code, or converted to UPF format
     Using radial grid of  627 points,  4 beta functions with: 
                l(1) =   0
                l(2) =   0
                l(3) =   1
                l(4) =   1
     Q(r) pseudized with 0 coefficients 


     PseudoPot. # 3 for N  read from file:
     /home/user/QE-2021/pseudo/N.pbe-rrkjus.UPF
     MD5 check sum: 0c3fbe5807a93f9ba59d5a7019aa238b
     Pseudo is Ultrasoft, Zval =  5.0
     Generated by new atomic code, or converted to UPF format
     Using radial grid of 1257 points,  4 beta functions with: 
                l(1) =   0
                l(2) =   0
                l(3) =   1
                l(4) =   1
     Q(r) pseudized with 0 coefficients 


     PseudoPot. # 4 for O  read from file:
     /home/user/QE-2021/pseudo/O.pbe-rrkjus.UPF
     MD5 check sum: 390ba29e75625707450f3bd3f0eb6be9
     Pseudo is Ultrasoft, Zval =  6.0
     Generated by new atomic code, or converted to UPF format
     Using radial grid of 1269 points,  4 beta functions with: 
                l(1) =   0
                l(2) =   0
                l(3) =   1
                l(4) =   1
     Q(r) pseudized with 0 coefficients 


     atomic species   valence    mass     pseudopotential
        H              1.00     1.00000     H ( 1.00)
        C              4.00     1.00000     C ( 1.00)
        N              5.00     1.00000     N ( 1.00)
        O              6.00     1.00000     O ( 1.00)

     No symmetry found



   Cartesian axes

     site n.     atom                  positions (alat units)
         1           C   tau(   1) = (  -0.0004003   0.5051543   0.3025175  )
         2           O   tau(   2) = (  -0.0009379   0.5055554   0.5618633  )
         3           N   tau(   3) = (   0.1687507   0.6736281   0.1675207  )
         4           H   tau(   4) = (   0.2938089   0.7990054   0.2832654  )
         5           H   tau(   5) = (   0.1779868   0.6823440  -0.0399857  )
         6           N   tau(   6) = (  -0.1689988   0.3362253   0.1674089  )
         7           H   tau(   7) = (  -0.2945828   0.2113604   0.2831541  )
         8           H   tau(   8) = (  -0.1778293   0.3271516  -0.0400985  )
         9           C   tau(   9) = (   0.5047761   0.0001209   0.7008935  )
        10           O   tau(  10) = (   0.5048669   0.0001522   0.4415444  )
        11           N   tau(  11) = (   0.6734125  -0.1688733   0.8358331  )
        12           N   tau(  12) = (   0.3360975   0.1690636   0.8358386  )
        13           H   tau(  13) = (   0.7985226  -0.2940656   0.7199109  )
        14           H   tau(  14) = (   0.2109527   0.2942973   0.7200573  )
        15           H   tau(  15) = (   0.6824208  -0.1779392   1.0433222  )
        16           H   tau(  16) = (   0.3270194   0.1780426   1.0433359  )

     number of k points=     1
                       cart. coord. in units 2pi/alat
        k(    1) = (   0.0000000   0.0000000   0.0000000), wk =   2.0000000

     Dense  grid:    25040 G-vectors     FFT dimensions: (  48,  48,  45)

     Smooth grid:     8841 G-vectors     FFT dimensions: (  36,  36,  32)

     Estimated max dynamical RAM per process >      26.54 MB

     Estimated total dynamical RAM >      53.07 MB

     Initial potential from superposition of free atoms

     starting charge   47.23022, renormalised to   48.00000
     Starting wfcs are   40 randomized atomic wfcs

     total cpu time spent up to now is      414.0 secs

     Self-consistent Calculation

     iteration #  1     ecut=    30.00 Ry     beta= 0.70
     Davidson diagonalization with overlap
     ethr =  1.00E-06,  avg # of iterations =  9.0

     total cpu time spent up to now is      420.9 secs

     total energy              =    -174.78915084 Ry
     estimated scf accuracy    <       2.77987364 Ry

     iteration #  2     ecut=    30.00 Ry     beta= 0.70
     Davidson diagonalization with overlap
     ethr =  5.79E-03,  avg # of iterations =  5.0

     total cpu time spent up to now is      421.0 secs

     total energy              =    -175.39582911 Ry
     estimated scf accuracy    <       1.72079337 Ry

     iteration #  3     ecut=    30.00 Ry     beta= 0.70
     Davidson diagonalization with overlap
     ethr =  3.58E-03,  avg # of iterations =  3.0

     total cpu time spent up to now is      421.1 secs

     total energy              =    -175.72163895 Ry
     estimated scf accuracy    <       0.04476496 Ry

     iteration #  4     ecut=    30.00 Ry     beta= 0.70
     Davidson diagonalization with overlap
     ethr =  9.33E-05,  avg # of iterations =  3.0

     total cpu time spent up to now is      421.3 secs

     total energy              =    -175.74559845 Ry
     estimated scf accuracy    <       0.02404431 Ry

     iteration #  5     ecut=    30.00 Ry     beta= 0.70
     Davidson diagonalization with overlap
     ethr =  5.01E-05,  avg # of iterations =  2.0

     total cpu time spent up to now is      421.4 secs

     total energy              =    -175.74698766 Ry
     estimated scf accuracy    <       0.00465509 Ry

     iteration #  6     ecut=    30.00 Ry     beta= 0.70
     Davidson diagonalization with overlap
     ethr =  9.70E-06,  avg # of iterations =  4.0

     total cpu time spent up to now is      421.5 secs

     total energy              =    -175.74803339 Ry
     estimated scf accuracy    <       0.00027789 Ry

     iteration #  7     ecut=    30.00 Ry     beta= 0.70
     Davidson diagonalization with overlap
     ethr =  5.79E-07,  avg # of iterations =  3.0

     total cpu time spent up to now is      421.7 secs

     total energy              =    -175.74810166 Ry
     estimated scf accuracy    <       0.00008333 Ry

     iteration #  8     ecut=    30.00 Ry     beta= 0.70
     Davidson diagonalization with overlap
     ethr =  1.74E-07,  avg # of iterations =  2.0

     total cpu time spent up to now is      421.8 secs

     total energy              =    -175.74809316 Ry
     estimated scf accuracy    <       0.00002544 Ry

     iteration #  9     ecut=    30.00 Ry     beta= 0.70
     Davidson diagonalization with overlap
     ethr =  5.30E-08,  avg # of iterations =  3.0

     total cpu time spent up to now is      421.9 secs

     total energy              =    -175.74810224 Ry
     estimated scf accuracy    <       0.00000231 Ry

     iteration # 10     ecut=    30.00 Ry     beta= 0.70
     Davidson diagonalization with overlap
     ethr =  4.81E-09,  avg # of iterations =  2.0

     total cpu time spent up to now is      422.0 secs

     total energy              =    -175.74810235 Ry
     estimated scf accuracy    <       0.00000073 Ry

     iteration # 11     ecut=    30.00 Ry     beta= 0.70
     Davidson diagonalization with overlap
     ethr =  1.52E-09,  avg # of iterations =  2.0

     total cpu time spent up to now is      422.2 secs

     total energy              =    -175.74810239 Ry
     estimated scf accuracy    <       0.00000009 Ry

     iteration # 12     ecut=    30.00 Ry     beta= 0.70
     Davidson diagonalization with overlap
     ethr =  1.97E-10,  avg # of iterations =  5.0

     total cpu time spent up to now is      422.3 secs

     total energy              =    -175.74810242 Ry
     estimated scf accuracy    <          7.5E-09 Ry

     iteration # 13     ecut=    30.00 Ry     beta= 0.70
     Davidson diagonalization with overlap
     ethr =  1.57E-11,  avg # of iterations =  3.0

     total cpu time spent up to now is      422.5 secs

     End of self-consistent calculation

          k = 0.0000 0.0000 0.0000 (  1102 PWs)   bands (ev):

   -19.1067 -18.6635 -15.3231 -15.2300 -14.2640 -14.2626  -8.4528  -7.3025
    -6.9570  -6.1270  -6.1255  -5.0264  -4.6660  -4.6639  -3.1020  -2.6079
    -2.6071  -1.9865  -0.0882   0.4802   0.4822   0.9347   0.9361   1.7538

     highest occupied level (ev):     1.7538

!    total energy              =    -175.74810242 Ry
     estimated scf accuracy    <          6.1E-10 Ry

     The total energy is the sum of the following terms:
     one-electron contribution =     -94.52724569 Ry
     hartree contribution      =      66.90856432 Ry
     xc contribution           =     -47.44361809 Ry
     ewald contribution        =    -100.61145301 Ry
     DFT-D3 Dispersion         =      -0.07434996 Ry

     convergence has been achieved in  13 iterations

     Forces acting on atoms (cartesian axes, Ry/au):

     atom    1 type  2   force =     0.00007823    0.00005396   -0.00003806
     atom    2 type  4   force =     0.00003372    0.00006488   -0.00050526
     atom    3 type  3   force =     0.00055360    0.00042202   -0.00067794
     atom    4 type  1   force =    -0.00001003   -0.00001720   -0.00029214
     atom    5 type  1   force =     0.00012064    0.00006227    0.00035573
     atom    6 type  3   force =    -0.00032750   -0.00048415   -0.00068175
     atom    7 type  1   force =     0.00019769    0.00001575   -0.00029840
     atom    8 type  1   force =     0.00008565   -0.00008694    0.00034714
     atom    9 type  2   force =    -0.00061070    0.00013113   -0.00066670
     atom   10 type  4   force =    -0.00010846    0.00000591    0.00011477
     atom   11 type  3   force =     0.00010771   -0.00060018    0.00180159
     atom   12 type  3   force =    -0.00045934    0.00041980    0.00200413
     atom   13 type  1   force =     0.00008118    0.00008555   -0.00001138
     atom   14 type  1   force =     0.00007883   -0.00006760   -0.00005717
     atom   15 type  1   force =     0.00017155   -0.00003637   -0.00067373
     atom   16 type  1   force =     0.00000723    0.00003116   -0.00072084

     Total force =     0.003526     Total SCF correction =     0.000038


     Computing stress (Cartesian axis) and pressure

          total   stress  (Ry/bohr**3)                   (kbar)     P=        7.52
   0.00006401  -0.00000016   0.00000005            9.42       -0.02        0.01
  -0.00000016   0.00006399  -0.00000004           -0.02        9.41       -0.01
   0.00000005  -0.00000004   0.00002540            0.01       -0.01        3.74


     Writing output data file /tmp/urea.save/

     init_run     :      3.39s CPU      3.44s WALL (       2 calls)
     electrons    :    125.00s CPU    126.62s WALL (      16 calls)
     update_pot   :     24.88s CPU     25.26s WALL (      14 calls)
     forces       :    136.92s CPU    139.15s WALL (      16 calls)
     stress       :    142.55s CPU    144.64s WALL (      16 calls)

     Called by init_run:
     wfcinit      :      0.05s CPU      0.05s WALL (       2 calls)
     potinit      :      1.32s CPU      1.33s WALL (       2 calls)
     hinit0       :      1.98s CPU      2.00s WALL (       2 calls)

     Called by electrons:
     c_bands      :      7.44s CPU      7.61s WALL (     163 calls)
     sum_band     :      5.12s CPU      5.22s WALL (     163 calls)
     v_of_rho     :      3.53s CPU      3.58s WALL (     174 calls)
     newd         :      4.64s CPU      4.70s WALL (     174 calls)
     mix_rho      :      0.32s CPU      0.33s WALL (     163 calls)

     Called by c_bands:
     init_us_2    :      0.08s CPU      0.08s WALL (     328 calls)
     regterg      :      7.28s CPU      7.43s WALL (     163 calls)

     Called by *egterg:
     rdiaghg      :      0.35s CPU      0.37s WALL (     720 calls)
     h_psi        :      4.28s CPU      4.39s WALL (     741 calls)
     s_psi        :      0.59s CPU      0.59s WALL (     741 calls)
     g_psi        :      0.02s CPU      0.02s WALL (     576 calls)

     Called by h_psi:
     h_psi:calbec :      1.13s CPU      1.15s WALL (     741 calls)
     vloc_psi     :      2.55s CPU      2.64s WALL (     741 calls)
     add_vuspsi   :      0.59s CPU      0.60s WALL (     741 calls)

     General routines
     calbec       :      2.14s CPU      2.20s WALL (     984 calls)
     fft          :      1.75s CPU      1.80s WALL (    2013 calls)
     ffts         :      0.11s CPU      0.12s WALL (     337 calls)
     fftw         :      2.51s CPU      2.60s WALL (   13906 calls)
     interpolate  :      0.22s CPU      0.23s WALL (     174 calls)

     Parallel routines
     fft_scatt_xy :      0.46s CPU      0.47s WALL (   16256 calls)
     fft_scatt_yz :      0.94s CPU      1.01s WALL (   16256 calls)

     PWSCF        :   7m13.52s CPU   7m20.15s WALL


   This run was terminated on:  16:45:47  26Apr2021            

=------------------------------------------------------------------------------=
   JOB DONE.
=------------------------------------------------------------------------------=
