
     Program PWSCF v.6.7MaX starts on 26Apr2021 at 16:15: 7 

     This program is part of the open-source Quantum ESPRESSO suite
     for quantum simulation of materials; please cite
         "P. Giannozzi et al., J. Phys.:Condens. Matter 21 395502 (2009);
         "P. Giannozzi et al., J. Phys.:Condens. Matter 29 465901 (2017);
          URL http://www.quantum-espresso.org", 
     in publications or presentations arising from this work. More details at
     http://www.quantum-espresso.org/quote

     Parallel version (MPI), running on     1 processors

     MPI processes distributed on     1 nodes
     Reading input from pw.Zn.vc-relax.in

     Current dimensions of program PWSCF are:
     Max number of different atomic species (ntypx) = 10
     Max number of k-points (npk) =  40000
     Max angular momentum in pseudopotentials (lmaxx) =  3

     Subspace diagonalization in iterative solution of the eigenvalue problem:
     a serial algorithm will be used


     G-vector sticks info
     --------------------
     sticks:   dense  smooth     PW     G-vecs:    dense   smooth      PW
     Sum         379     199     73                10801     3865     835



     bravais-lattice index     =            4
     lattice parameter (alat)  =       4.8000  a.u.
     unit-cell volume          =     172.3959 (a.u.)^3
     number of atoms/cell      =            2
     number of atomic types    =            1
     number of electrons       =        24.00
     number of Kohn-Sham states=           16
     kinetic-energy cutoff     =      30.0000  Ry
     charge density cutoff     =     240.0000  Ry
     scf convergence threshold =      1.0E-10
     mixing beta               =       0.7000
     number of iterations used =            8  plain     mixing
     energy convergence thresh.=      1.0E-04
     force convergence thresh. =      1.0E-03
     press convergence thresh. =      5.0E-01
     Exchange-correlation=  SLA  PW   PBE  PBE
                           (   1   4   3   4   0   0   0)
     nstep                     =           50


     celldm(1)=   4.800000  celldm(2)=   0.000000  celldm(3)=   1.800000
     celldm(4)=   0.000000  celldm(5)=   0.000000  celldm(6)=   0.000000

     crystal axes: (cart. coord. in units of alat)
               a(1) = (   1.000000   0.000000   0.000000 )  
               a(2) = (  -0.500000   0.866025   0.000000 )  
               a(3) = (   0.000000   0.000000   1.800000 )  

     reciprocal axes: (cart. coord. in units 2 pi/alat)
               b(1) = (  1.000000  0.577350 -0.000000 )  
               b(2) = (  0.000000  1.154701  0.000000 )  
               b(3) = (  0.000000 -0.000000  0.555556 )  


     PseudoPot. # 1 for Zn read from file:
     /home/user/QE-2021/pseudo/Zn.pbe-van.UPF
     MD5 check sum: 8a117cd81793830d6ad9bd6443d05479
     Pseudo is Ultrasoft, Zval = 12.0
     Generated by new atomic code, or converted to UPF format
     Using radial grid of  869 points,  6 beta functions with: 
                l(1) =   0
                l(2) =   0
                l(3) =   1
                l(4) =   1
                l(5) =   2
                l(6) =   2
     Q(r) pseudized with  8 coefficients,  rinner =    0.800   0.800   0.800
                                                       0.800   0.800

     atomic species   valence    mass     pseudopotential
        Zn            12.00     1.00000     Zn( 1.00)

     24 Sym. Ops., with inversion, found (12 have fractional translation)



   Cartesian axes

     site n.     atom                  positions (alat units)
         1           Zn  tau(   1) = (   0.0000000   0.0000000   0.0000000  )
         2           Zn  tau(   2) = (   0.5000000   0.2886751   0.9000000  )

     number of k points=    24  Methfessel-Paxton smearing, width (Ry)=  0.0300
                       cart. coord. in units 2pi/alat
        k(    1) = (   0.0833333   0.1443376   0.0694444), wk =   0.0555556
        k(    2) = (   0.0833333   0.1443376   0.2083333), wk =   0.0555556
        k(    3) = (   0.0833333   0.3367877   0.0694444), wk =   0.1111111
        k(    4) = (   0.0833333   0.3367877   0.2083333), wk =   0.1111111
        k(    5) = (   0.0833333   0.5292377   0.0694444), wk =   0.1111111
        k(    6) = (   0.0833333   0.5292377   0.2083333), wk =   0.1111111
        k(    7) = (   0.0833333  -0.4330127   0.0694444), wk =   0.1111111
        k(    8) = (   0.0833333  -0.4330127   0.2083333), wk =   0.1111111
        k(    9) = (   0.0833333  -0.2405626   0.0694444), wk =   0.1111111
        k(   10) = (   0.0833333  -0.2405626   0.2083333), wk =   0.1111111
        k(   11) = (   0.0833333  -0.0481125   0.0694444), wk =   0.0555556
        k(   12) = (   0.0833333  -0.0481125   0.2083333), wk =   0.0555556
        k(   13) = (   0.2500000   0.4330127   0.0694444), wk =   0.0555556
        k(   14) = (   0.2500000   0.4330127   0.2083333), wk =   0.0555556
        k(   15) = (   0.2500000   0.6254628   0.0694444), wk =   0.1111111
        k(   16) = (   0.2500000   0.6254628   0.2083333), wk =   0.1111111
        k(   17) = (   0.2500000  -0.3367877   0.0694444), wk =   0.1111111
        k(   18) = (   0.2500000  -0.3367877   0.2083333), wk =   0.1111111
        k(   19) = (   0.2500000  -0.1443376   0.0694444), wk =   0.0555556
        k(   20) = (   0.2500000  -0.1443376   0.2083333), wk =   0.0555556
        k(   21) = (   0.4166667   0.7216878   0.0694444), wk =   0.0555556
        k(   22) = (   0.4166667   0.7216878   0.2083333), wk =   0.0555556
        k(   23) = (   0.4166667  -0.2405626   0.0694444), wk =   0.0555556
        k(   24) = (   0.4166667  -0.2405626   0.2083333), wk =   0.0555556

     Dense  grid:    10801 G-vectors     FFT dimensions: (  24,  24,  48)

     Smooth grid:     3865 G-vectors     FFT dimensions: (  18,  18,  32)

     Estimated max dynamical RAM per process >      45.13 MB

     Initial potential from superposition of free atoms

     starting charge   23.99970, renormalised to   24.00000
     Starting wfcs are   12 randomized atomic wfcs +    4 random wfcs

     total cpu time spent up to now is        0.9 secs

     Self-consistent Calculation

     iteration #  1     ecut=    30.00 Ry     beta= 0.70
     Davidson diagonalization with overlap
     ethr =  1.00E-02,  avg # of iterations =  4.2

     Threshold (ethr) on eigenvalues was too large:
     Diagonalizing with lowered threshold

     Davidson diagonalization with overlap
     ethr =  3.60E-04,  avg # of iterations =  1.8

     total cpu time spent up to now is        1.8 secs

     total energy              =    -253.10795260 Ry
     estimated scf accuracy    <       0.08524263 Ry

     iteration #  2     ecut=    30.00 Ry     beta= 0.70
     Davidson diagonalization with overlap
     ethr =  3.55E-04,  avg # of iterations =  2.0

     total cpu time spent up to now is        2.4 secs

     total energy              =    -253.13298138 Ry
     estimated scf accuracy    <       0.07349484 Ry

     iteration #  3     ecut=    30.00 Ry     beta= 0.70
     Davidson diagonalization with overlap
     ethr =  3.06E-04,  avg # of iterations =  2.0

     total cpu time spent up to now is        2.9 secs

     total energy              =    -253.14666501 Ry
     estimated scf accuracy    <       0.00036173 Ry

     iteration #  4     ecut=    30.00 Ry     beta= 0.70
     Davidson diagonalization with overlap
     ethr =  1.51E-06,  avg # of iterations =  6.0

     total cpu time spent up to now is        3.5 secs

     total energy              =    -253.14672918 Ry
     estimated scf accuracy    <       0.00008914 Ry

     iteration #  5     ecut=    30.00 Ry     beta= 0.70
     Davidson diagonalization with overlap
     ethr =  3.71E-07,  avg # of iterations =  2.0

     total cpu time spent up to now is        4.1 secs

     total energy              =    -253.14675397 Ry
     estimated scf accuracy    <       0.00000344 Ry

     iteration #  6     ecut=    30.00 Ry     beta= 0.70
     Davidson diagonalization with overlap
     ethr =  1.43E-08,  avg # of iterations =  2.3

     total cpu time spent up to now is        4.5 secs

     total energy              =    -253.14675453 Ry
     estimated scf accuracy    <       0.00000011 Ry

     iteration #  7     ecut=    30.00 Ry     beta= 0.70
     Davidson diagonalization with overlap
     ethr =  4.75E-10,  avg # of iterations =  3.3

     total cpu time spent up to now is        5.1 secs

     End of self-consistent calculation

          k = 0.0833 0.1443 0.0694 (   480 PWs)   bands (ev):

     2.7748   4.7510   5.4771   5.6587   5.6910   5.8908   5.9510   5.9667
     6.0840   6.2051   6.5014   9.3991  13.2323  27.3896  27.4391  28.9677

          k = 0.0833 0.1443 0.2083 (   472 PWs)   bands (ev):

     3.5902   4.5746   5.4660   5.5391   5.6026   5.7715   5.8820   5.9172
     6.2891   6.3431   6.4322   7.1072  17.7550  23.0690  28.3399  28.3478

          k = 0.0833 0.3368 0.0694 (   478 PWs)   bands (ev):

     4.4862   5.0301   5.3097   5.5256   5.6372   5.9331   6.0000   6.0899
     6.3965   6.4648   6.6970  11.5700  15.2512  19.5447  24.2748  24.9648

          k = 0.0833 0.3368 0.2083 (   478 PWs)   bands (ev):

     4.7509   5.0261   5.2504   5.3731   5.7812   5.9488   6.0714   6.2565
     6.4089   6.4819   7.1079   8.8047  19.6134  20.4227  22.4399  24.8668

          k = 0.0833 0.5292 0.0694 (   481 PWs)   bands (ev):

     4.7947   4.8232   5.1023   5.5662   5.8092   5.9535   6.2765   6.4559
     6.6177   6.6730   9.8742  12.5301  15.7538  17.7050  19.9890  22.0648

          k = 0.0833 0.5292 0.2083 (   481 PWs)   bands (ev):

     4.7380   4.8355   5.1882   5.2036   5.9549   6.2430   6.2858   6.5427
     6.5758   6.6584  10.5636  11.8772  14.6136  15.8074  23.5262  23.8480

          k = 0.0833-0.4330 0.0694 (   478 PWs)   bands (ev):

     4.7932   4.9122   5.1690   5.5568   5.8159   5.9182   6.1245   6.4113
     6.4642   6.5927   7.8636  13.0513  16.0571  17.0527  21.6393  23.3431

          k = 0.0833-0.4330 0.2083 (   478 PWs)   bands (ev):

     4.7820   4.9112   5.2088   5.2666   5.9713   6.1343   6.2572   6.3316
     6.5041   6.6188   8.5641  10.3517  17.0294  18.5855  21.7318  24.3021

          k = 0.0833-0.2406 0.0694 (   472 PWs)   bands (ev):

     3.5926   5.0079   5.4448   5.5501   5.6241   5.7799   6.0026   6.0624
     6.1852   6.2213   6.4991  10.3332  14.0267  23.3231  25.6837  28.6360

          k = 0.0833-0.2406 0.2083 (   473 PWs)   bands (ev):

     4.2769   4.9746   5.3473   5.4550   5.5490   5.6955   6.0365   6.1315
     6.3047   6.3808   6.5261   7.7483  18.5560  23.5934  24.5172  26.0260

          k = 0.0833-0.0481 0.0694 (   480 PWs)   bands (ev):

     2.3349   4.5565   5.4679   5.6834   5.7558   5.7697   5.8444   6.1374
     6.1702   6.3056   6.5024   8.8238  12.8557  28.4703  29.5127  31.1907

          k = 0.0833-0.0481 0.2083 (   467 PWs)   bands (ev):

     3.1831   4.2817   5.4729   5.6678   5.6792   5.7623   5.7971   5.9224
     6.2972   6.3254   6.4302   6.7385  17.3479  22.6771  30.3605  31.9892

          k = 0.2500 0.4330 0.0694 (   480 PWs)   bands (ev):

     5.1218   5.2128   5.3511   5.4078   5.7680   5.7738   5.8946   6.1818
     6.3533   6.6317   9.3055  14.4330  17.2305  17.2997  18.2868  22.5982

          k = 0.2500 0.4330 0.2083 (   481 PWs)   bands (ev):

     5.0886   5.1555   5.3467   5.5172   5.6390   5.8347   5.9737   6.1382
     6.4672   6.6439  10.0761  11.8068  18.1708  18.1921  19.8073  19.9995

          k = 0.2500 0.6255 0.0694 (   485 PWs)   bands (ev):

     5.1089   5.2244   5.3458   5.5210   5.6687   5.8076   5.9577   6.3189
     6.3353   6.5466  11.4361  13.9996  16.4485  17.2255  19.1487  20.8679

          k = 0.2500 0.6255 0.2083 (   480 PWs)   bands (ev):

     5.1080   5.2457   5.3331   5.4989   5.6036   5.8616   6.0550   6.1333
     6.4670   6.5709  12.2234  13.6541  15.5168  16.8735  17.8766  19.5209

          k = 0.2500-0.3368 0.0694 (   479 PWs)   bands (ev):

     5.0036   5.1409   5.2263   5.4508   5.6773   5.8499   5.9446   6.0976
     6.4110   6.5834   7.6996  12.8170  16.4875  18.2548  20.6479  23.6570

          k = 0.2500-0.3368 0.2083 (   475 PWs)   bands (ev):

     4.9842   5.1066   5.2710   5.4329   5.7049   5.8611   6.0080   6.1989
     6.4600   6.6217   8.3354  10.0705  19.0815  20.2699  21.4157  21.8021

          k = 0.2500-0.1443 0.0694 (   478 PWs)   bands (ev):

     3.9286   4.9807   5.4420   5.5521   5.5917   5.9910   6.0041   6.0770
     6.1997   6.2353   6.5108  10.7466  14.4273  21.2473  26.5786  27.2645

          k = 0.2500-0.1443 0.2083 (   472 PWs)   bands (ev):

     4.4704   4.9576   5.3093   5.3963   5.7489   5.9174   6.0653   6.1564
     6.2987   6.4217   6.5740   8.0596  18.9278  22.0586  24.0023  24.4259

          k = 0.4167 0.7217 0.0694 (   475 PWs)   bands (ev):

     4.9604   4.9796   5.2141   5.5670   5.6983   5.9823   6.0729   6.3817
     6.5128   6.5794  11.4345  12.1326  17.1929  17.3293  19.6576  21.1115

          k = 0.4167 0.7217 0.2083 (   484 PWs)   bands (ev):

     4.9014   5.0283   5.2435   5.3240   5.7660   6.1003   6.2610   6.3245
     6.5113   6.5736  12.1141  12.4548  15.1118  15.1454  20.6504  22.3907

          k = 0.4167-0.2406 0.0694 (   482 PWs)   bands (ev):

     4.7214   4.7956   5.0946   5.5743   5.8854   5.8930   6.3027   6.4872
     6.6379   6.6682   8.5501  13.1605  15.1270  17.5128  20.2289  23.2771

          k = 0.4167-0.2406 0.2083 (   482 PWs)   bands (ev):

     4.6880   4.7900   5.1650   5.2022   6.0493   6.2340   6.2955   6.5176
     6.6507   6.6653   9.2748  10.9864  15.4678  16.9910  22.4504  26.0448

     the Fermi energy is    13.9122 ev

!    total energy              =    -253.14675460 Ry
     estimated scf accuracy    <          3.9E-11 Ry
     smearing contrib. (-TS)   =      -0.00034208 Ry
     internal energy E=F+TS    =    -253.14641252 Ry

     The total energy is F=E-TS. E is the sum of the following terms:
     one-electron contribution =    -115.60509545 Ry
     hartree contribution      =      87.65587862 Ry
     xc contribution           =     -37.16943809 Ry
     ewald contribution        =    -188.02775759 Ry

     convergence has been achieved in   7 iterations

     Forces acting on atoms (cartesian axes, Ry/au):

     atom    1 type  1   force =     0.00000000    0.00000000    0.00000000
     atom    2 type  1   force =    -0.00000000   -0.00000000    0.00000000

     Total force =     0.000000     Total SCF correction =     0.000000


     Computing stress (Cartesian axis) and pressure

          total   stress  (Ry/bohr**3)                   (kbar)     P=      185.82
   0.00136853   0.00000000   0.00000000          201.32        0.00        0.00
   0.00000000   0.00136853  -0.00000000            0.00      201.32       -0.00
   0.00000000  -0.00000000   0.00105240            0.00       -0.00      154.81


     BFGS Geometry Optimization
     Energy error            =      0.0E+00
     Gradient error          =      2.2E-24
     Cell gradient error     =      1.4E-03


     number of scf cycles    =   1
     number of bfgs steps    =   0

     enthalpy new            =    -253.1467545966 Ry

     new trust radius        =       0.0898437704 bohr
     new conv_thr            =            1.0E-10 Ry

     new unit-cell volume =    189.24553 a.u.^3 (    28.04329 Ang^3 )
     density =      0.11843 g/cm^3

CELL_PARAMETERS (alat=  4.80000000)
   1.034213268   0.000000000  -0.000000000
  -0.517106634   0.895654963  -0.000000000
   0.000000000  -0.000000000   1.847358077

ATOMIC_POSITIONS (crystal)
Zn            0.0000000000        0.0000000000        0.0000000000
Zn            0.6666666670        0.3333333330        0.5000000000



     Writing output data file /tmp/Zn.save/
     NEW-OLD atomic charge density approx. for the potential
     extrapolated charge   26.13684, renormalised to   24.00000

     total cpu time spent up to now is        6.1 secs

     Self-consistent Calculation

     iteration #  1     ecut=    30.00 Ry     beta= 0.70
     Davidson diagonalization with overlap
     ethr =  1.00E-06,  avg # of iterations = 10.4

     total cpu time spent up to now is        7.5 secs

     total energy              =    -244.11999227 Ry
     estimated scf accuracy    <       7.89388981 Ry

     iteration #  2     ecut=    30.00 Ry     beta= 0.70
     Davidson diagonalization with overlap
     ethr =  1.00E-02,  avg # of iterations =  2.8

     total cpu time spent up to now is        8.1 secs

     total energy              =    -254.23427235 Ry
     estimated scf accuracy    <      13.53915492 Ry

     iteration #  3     ecut=    30.00 Ry     beta= 0.70
     Davidson diagonalization with overlap
     ethr =  1.00E-02,  avg # of iterations =  2.0

     total cpu time spent up to now is        8.6 secs

     total energy              =    -253.09635413 Ry
     estimated scf accuracy    <       3.77211954 Ry

     iteration #  4     ecut=    30.00 Ry     beta= 0.70
     Davidson diagonalization with overlap
     ethr =  1.00E-02,  avg # of iterations =  2.0

     total cpu time spent up to now is        9.1 secs

     total energy              =    -253.34010922 Ry
     estimated scf accuracy    <       0.62373895 Ry

     iteration #  5     ecut=    30.00 Ry     beta= 0.70
     Davidson diagonalization with overlap
     ethr =  2.60E-03,  avg # of iterations =  1.0

     total cpu time spent up to now is        9.5 secs

     total energy              =    -253.29444421 Ry
     estimated scf accuracy    <       0.51881589 Ry

     iteration #  6     ecut=    30.00 Ry     beta= 0.70
     Davidson diagonalization with overlap
     ethr =  2.16E-03,  avg # of iterations =  1.0

     total cpu time spent up to now is        9.9 secs

     total energy              =    -253.15684525 Ry
     estimated scf accuracy    <       0.39320470 Ry

     iteration #  7     ecut=    30.00 Ry     beta= 0.70
     Davidson diagonalization with overlap
     ethr =  1.64E-03,  avg # of iterations =  1.0

     total cpu time spent up to now is       10.3 secs

     total energy              =    -253.16184614 Ry
     estimated scf accuracy    <       0.07388628 Ry

     iteration #  8     ecut=    30.00 Ry     beta= 0.70
     Davidson diagonalization with overlap
     ethr =  3.08E-04,  avg # of iterations =  1.1

     total cpu time spent up to now is       10.7 secs

     total energy              =    -253.16591384 Ry
     estimated scf accuracy    <       0.01837883 Ry

     iteration #  9     ecut=    30.00 Ry     beta= 0.70
     Davidson diagonalization with overlap
     ethr =  7.66E-05,  avg # of iterations =  1.4

     total cpu time spent up to now is       11.2 secs

     total energy              =    -253.16015434 Ry
     estimated scf accuracy    <       0.01914573 Ry

     iteration # 10     ecut=    30.00 Ry     beta= 0.70
     Davidson diagonalization with overlap
     ethr =  7.66E-05,  avg # of iterations =  1.0

     total cpu time spent up to now is       11.6 secs

     total energy              =    -253.15923175 Ry
     estimated scf accuracy    <       0.00371845 Ry

     iteration # 11     ecut=    30.00 Ry     beta= 0.70
     Davidson diagonalization with overlap
     ethr =  1.55E-05,  avg # of iterations =  2.1

     total cpu time spent up to now is       12.1 secs

     total energy              =    -253.16034363 Ry
     estimated scf accuracy    <       0.00018999 Ry

     iteration # 12     ecut=    30.00 Ry     beta= 0.70
     Davidson diagonalization with overlap
     ethr =  7.92E-07,  avg # of iterations =  2.2

     total cpu time spent up to now is       12.6 secs

     total energy              =    -253.16038033 Ry
     estimated scf accuracy    <       0.00001691 Ry

     iteration # 13     ecut=    30.00 Ry     beta= 0.70
     Davidson diagonalization with overlap
     ethr =  7.04E-08,  avg # of iterations =  2.3

     total cpu time spent up to now is       13.1 secs

     total energy              =    -253.16036631 Ry
     estimated scf accuracy    <       0.00006721 Ry

     iteration # 14     ecut=    30.00 Ry     beta= 0.70
     Davidson diagonalization with overlap
     ethr =  7.04E-08,  avg # of iterations =  2.0

     total cpu time spent up to now is       13.6 secs

     total energy              =    -253.16036727 Ry
     estimated scf accuracy    <       0.00000716 Ry

     iteration # 15     ecut=    30.00 Ry     beta= 0.70
     Davidson diagonalization with overlap
     ethr =  2.98E-08,  avg # of iterations =  2.0

     total cpu time spent up to now is       14.2 secs

     total energy              =    -253.16037682 Ry
     estimated scf accuracy    <       0.00000610 Ry

     iteration # 16     ecut=    30.00 Ry     beta= 0.70
     Davidson diagonalization with overlap
     ethr =  2.54E-08,  avg # of iterations =  2.0

     total cpu time spent up to now is       14.7 secs

     total energy              =    -253.16037277 Ry
     estimated scf accuracy    <       0.00002454 Ry

     iteration # 17     ecut=    30.00 Ry     beta= 0.70
     Davidson diagonalization with overlap
     ethr =  2.54E-08,  avg # of iterations =  1.2

     total cpu time spent up to now is       15.1 secs

     total energy              =    -253.16036887 Ry
     estimated scf accuracy    <       0.00001013 Ry

     iteration # 18     ecut=    30.00 Ry     beta= 0.70
     Davidson diagonalization with overlap
     ethr =  2.54E-08,  avg # of iterations =  2.0

     total cpu time spent up to now is       15.6 secs

     total energy              =    -253.16037055 Ry
     estimated scf accuracy    <       0.00000006 Ry

     iteration # 19     ecut=    30.00 Ry     beta= 0.70
     Davidson diagonalization with overlap
     ethr =  2.38E-10,  avg # of iterations =  2.2

     total cpu time spent up to now is       16.2 secs

     total energy              =    -253.16037057 Ry
     estimated scf accuracy    <          5.9E-09 Ry

     iteration # 20     ecut=    30.00 Ry     beta= 0.70
     Davidson diagonalization with overlap
     ethr =  2.45E-11,  avg # of iterations =  1.8

     total cpu time spent up to now is       16.6 secs

     End of self-consistent calculation

          k = 0.0806 0.1396 0.0677 (   480 PWs)   bands (ev):

     1.9609   3.6436   4.2312   4.3847   4.4129   4.5736   4.6401   4.6498
     4.7306   4.8431   5.0880   8.1111  11.6971  24.8592  24.9660  26.7419

          k = 0.0806 0.1396 0.2030 (   472 PWs)   bands (ev):

     2.7264   3.5511   4.2283   4.3002   4.3350   4.5082   4.5700   4.5969
     4.9060   4.9623   5.0335   5.7755  16.0381  21.1135  25.7360  25.8917

          k = 0.0806 0.3256 0.0677 (   478 PWs)   bands (ev):

     3.4927   3.8629   4.1201   4.2863   4.3751   4.6239   4.6785   4.7515
     5.0001   5.0612   5.3251  10.1251  13.6544  17.4795  21.9926  22.6308

          k = 0.0806 0.3256 0.2030 (   478 PWs)   bands (ev):

     3.6839   3.8870   4.0537   4.1500   4.5085   4.6495   4.7223   4.8817
     5.0147   5.0733   5.8145   7.4831  17.8121  18.3194  20.2595  22.6562

          k = 0.0806 0.5117 0.0677 (   481 PWs)   bands (ev):

     3.6692   3.6949   3.9317   4.3203   4.5003   4.6338   4.9205   5.0533
     5.1872   5.2314   8.5147  11.0034  13.9659  15.9093  17.9717  20.0621

          k = 0.0806 0.5117 0.2030 (   481 PWs)   bands (ev):

     3.6248   3.7089   3.9967   4.0058   4.6260   4.8717   4.9157   5.1260
     5.1565   5.2205   9.2199  10.5198  12.7583  13.9798  21.4776  21.5588

          k = 0.0806-0.4187 0.0677 (   478 PWs)   bands (ev):

     3.6874   3.7659   3.9934   4.3138   4.5170   4.5947   4.8007   5.0214
     5.0614   5.1637   6.5495  11.5652  14.2570  15.2660  19.5156  21.0930

          k = 0.0806-0.4187 0.2030 (   478 PWs)   bands (ev):

     3.6704   3.7771   4.0170   4.0595   4.6433   4.7890   4.8821   4.9563
     5.0974   5.1867   7.2742   8.9922  15.1230  16.6523  19.7498  21.9991

          k = 0.0806-0.2326 0.0677 (   472 PWs)   bands (ev):

     2.7182   3.8526   4.2066   4.3142   4.3649   4.4946   4.6668   4.7177
     4.8237   4.8603   5.0882   8.9599  12.4731  21.0521  23.2898  26.1334

          k = 0.0806-0.2326 0.2030 (   473 PWs)   bands (ev):

     3.3403   3.8753   4.1375   4.2155   4.3021   4.4306   4.6910   4.7791
     4.9233   4.9908   5.1619   6.4276  16.7985  21.5100  22.2826  23.6709

          k = 0.0806-0.0465 0.0677 (   480 PWs)   bands (ev):

     1.5513   3.4810   4.2267   4.4016   4.4635   4.4720   4.5363   4.7754
     4.7983   4.9440   5.0880   7.6158  11.3230  26.2735  26.8986  28.3761

          k = 0.0806-0.0465 0.2030 (   467 PWs)   bands (ev):

     2.3503   3.3022   4.2414   4.3873   4.4028   4.4640   4.4945   4.6794
     4.9102   4.9406   5.0257   5.4031  15.6516  20.7471  27.7062  29.3348

          k = 0.2417 0.4187 0.0677 (   480 PWs)   bands (ev):

     3.9423   4.0225   4.1354   4.2004   4.4817   4.5115   4.5881   4.8240
     4.9705   5.1985   7.8904  12.8532  15.2857  15.4696  16.4505  20.3821

          k = 0.2417 0.4187 0.2030 (   481 PWs)   bands (ev):

     3.9159   3.9756   4.1357   4.2826   4.3740   4.5578   4.6518   4.7856
     5.0646   5.2093   8.6593  10.3355  16.1499  16.3324  17.8730  17.8733

          k = 0.2417 0.6048 0.0677 (   485 PWs)   bands (ev):

     3.9278   4.0317   4.1360   4.2821   4.3972   4.5307   4.6449   4.9431
     4.9534   5.1290   9.9244  12.3489  14.7125  15.2960  17.2559  18.8123

          k = 0.2417 0.6048 0.2030 (   480 PWs)   bands (ev):

     3.9301   4.0451   4.1256   4.2562   4.3516   4.5755   4.7263   4.7861
     5.0612   5.1483  10.7018  12.1286  13.6730  15.0616  15.8868  17.5089

          k = 0.2417-0.3256 0.0677 (   479 PWs)   bands (ev):

     3.8805   3.9554   4.0554   4.2260   4.4086   4.5727   4.6208   4.7547
     5.0166   5.1566   6.3308  11.3062  14.8373  16.2519  18.5557  21.4079

          k = 0.2417-0.3256 0.2030 (   475 PWs)   bands (ev):

     3.8447   3.9465   4.0673   4.2087   4.4379   4.5774   4.6737   4.8339
     5.0606   5.1895   7.0035   8.6915  17.0784  18.3294  19.3951  19.5985

          k = 0.2417-0.1396 0.0677 (   478 PWs)   bands (ev):

     3.0191   3.8242   4.2282   4.3066   4.3387   4.6582   4.6957   4.7399
     4.8344   4.8638   5.0969   9.3477  12.8624  19.0914  24.2010  24.7586

          k = 0.2417-0.1396 0.2030 (   472 PWs)   bands (ev):

     3.4836   3.8402   4.1080   4.1671   4.4870   4.6352   4.7133   4.7950
     4.9170   5.0213   5.2448   6.7481  17.1540  19.8856  21.7594  22.3369

          k = 0.4029 0.6978 0.0677 (   475 PWs)   bands (ev):

     3.8091   3.8234   4.0274   4.3201   4.4103   4.6596   4.7543   4.9936
     5.1031   5.1555  10.0295  10.5136  15.3871  15.4900  17.6554  18.9487

          k = 0.4029 0.6978 0.2030 (   484 PWs)   bands (ev):

     3.7602   3.8738   4.0371   4.1123   4.4742   4.7607   4.8971   4.9526
     5.1000   5.1507  10.7275  10.9473  13.2928  13.3167  18.5654  20.2267

          k = 0.4029-0.2326 0.0677 (   482 PWs)   bands (ev):

     3.6149   3.6690   3.9263   4.3289   4.5585   4.5875   4.9412   5.0781
     5.1993   5.2264   7.2572  11.7077  13.2859  15.7701  18.1604  21.1871

          k = 0.4029-0.2326 0.2030 (   482 PWs)   bands (ev):

     3.5858   3.6711   3.9791   4.0043   4.7003   4.8758   4.9128   5.1059
     5.2108   5.2238   7.9938   9.6414  13.6144  15.1218  20.4425  23.8692

     the Fermi energy is    12.3256 ev

!    total energy              =    -253.16037057 Ry
     estimated scf accuracy    <          1.6E-11 Ry
     smearing contrib. (-TS)   =      -0.00027563 Ry
     internal energy E=F+TS    =    -253.16009495 Ry

     The total energy is F=E-TS. E is the sum of the following terms:
     one-electron contribution =    -124.82755419 Ry
     hartree contribution      =      91.06706890 Ry
     xc contribution           =     -37.08417254 Ry
     ewald contribution        =    -182.31543712 Ry

     convergence has been achieved in  20 iterations

     Forces acting on atoms (cartesian axes, Ry/au):

     atom    1 type  1   force =     0.00000000   -0.00000000   -0.00000000
     atom    2 type  1   force =    -0.00000000    0.00000000    0.00000000

     Total force =     0.000000     Total SCF correction =     0.000000


     Computing stress (Cartesian axis) and pressure

          total   stress  (Ry/bohr**3)                   (kbar)     P=       60.27
   0.00042398   0.00000000   0.00000000           62.37        0.00        0.00
  -0.00000000   0.00042398   0.00000000           -0.00       62.37        0.00
   0.00000000   0.00000000   0.00038124            0.00        0.00       56.08

     Energy error            =      1.4E-02
     Gradient error          =      3.1E-24
     Cell gradient error     =      4.2E-04


     number of scf cycles    =   2
     number of bfgs steps    =   1

     enthalpy old            =    -253.1467545966 Ry
     enthalpy new            =    -253.1603705718 Ry

     CASE: enthalpy_new < enthalpy_old

     new trust radius        =       0.0456289111 bohr
     new conv_thr            =            1.0E-12 Ry

     new unit-cell volume =    198.53494 a.u.^3 (    29.41984 Ang^3 )
     density =      0.11289 g/cm^3

CELL_PARAMETERS (alat=  4.80000000)
   1.051364977  -0.000000000   0.000000000
  -0.525682488   0.910508778   0.000000000
   0.000000000   0.000000000   1.875320903

ATOMIC_POSITIONS (crystal)
Zn            0.0000000000       -0.0000000000        0.0000000000
Zn            0.6666666670        0.3333333330        0.5000000000



     Writing output data file /tmp/Zn.save/
     NEW-OLD atomic charge density approx. for the potential
     extrapolated charge   25.12294, renormalised to   24.00000

     total cpu time spent up to now is       17.6 secs

     Self-consistent Calculation

     iteration #  1     ecut=    30.00 Ry     beta= 0.70
     Davidson diagonalization with overlap
     ethr =  1.00E-06,  avg # of iterations =  8.1

     total cpu time spent up to now is       18.8 secs

     total energy              =    -251.27920823 Ry
     estimated scf accuracy    <       1.57683184 Ry

     iteration #  2     ecut=    30.00 Ry     beta= 0.70
     Davidson diagonalization with overlap
     ethr =  6.57E-03,  avg # of iterations =  2.1

     total cpu time spent up to now is       19.3 secs

     total energy              =    -253.24338696 Ry
     estimated scf accuracy    <       3.74418096 Ry

     iteration #  3     ecut=    30.00 Ry     beta= 0.70
     Davidson diagonalization with overlap
     ethr =  6.57E-03,  avg # of iterations =  2.0

     total cpu time spent up to now is       19.8 secs

     total energy              =    -253.17109913 Ry
     estimated scf accuracy    <       0.81871734 Ry

     iteration #  4     ecut=    30.00 Ry     beta= 0.70
     Davidson diagonalization with overlap
     ethr =  3.41E-03,  avg # of iterations =  1.0

     total cpu time spent up to now is       20.2 secs

     total energy              =    -253.20445823 Ry
     estimated scf accuracy    <       0.18255515 Ry

     iteration #  5     ecut=    30.00 Ry     beta= 0.70
     Davidson diagonalization with overlap
     ethr =  7.61E-04,  avg # of iterations =  1.0

     total cpu time spent up to now is       20.6 secs

     total energy              =    -253.17442012 Ry
     estimated scf accuracy    <       0.13191542 Ry

     iteration #  6     ecut=    30.00 Ry     beta= 0.70
     Davidson diagonalization with overlap
     ethr =  5.50E-04,  avg # of iterations =  1.0

     total cpu time spent up to now is       21.0 secs

     total energy              =    -253.16712576 Ry
     estimated scf accuracy    <       0.05028842 Ry

     iteration #  7     ecut=    30.00 Ry     beta= 0.70
     Davidson diagonalization with overlap
     ethr =  2.10E-04,  avg # of iterations =  1.0

     total cpu time spent up to now is       21.5 secs

     total energy              =    -253.16392738 Ry
     estimated scf accuracy    <       0.01922906 Ry

     iteration #  8     ecut=    30.00 Ry     beta= 0.70
     Davidson diagonalization with overlap
     ethr =  8.01E-05,  avg # of iterations =  1.0

     total cpu time spent up to now is       21.9 secs

     total energy              =    -253.16084880 Ry
     estimated scf accuracy    <       0.00635466 Ry

     iteration #  9     ecut=    30.00 Ry     beta= 0.70
     Davidson diagonalization with overlap
     ethr =  2.65E-05,  avg # of iterations =  2.1

     total cpu time spent up to now is       22.4 secs

     total energy              =    -253.16310453 Ry
     estimated scf accuracy    <       0.00023923 Ry

     iteration # 10     ecut=    30.00 Ry     beta= 0.70
     Davidson diagonalization with overlap
     ethr =  9.97E-07,  avg # of iterations =  2.5

     total cpu time spent up to now is       22.9 secs

     total energy              =    -253.16225666 Ry
     estimated scf accuracy    <       0.00198734 Ry

     iteration # 11     ecut=    30.00 Ry     beta= 0.70
     Davidson diagonalization with overlap
     ethr =  9.97E-07,  avg # of iterations =  2.4

     total cpu time spent up to now is       23.5 secs

     total energy              =    -253.16268405 Ry
     estimated scf accuracy    <       0.00000191 Ry

     iteration # 12     ecut=    30.00 Ry     beta= 0.70
     Davidson diagonalization with overlap
     ethr =  7.98E-09,  avg # of iterations =  2.4

     total cpu time spent up to now is       24.0 secs

     total energy              =    -253.16268303 Ry
     estimated scf accuracy    <       0.00000418 Ry

     iteration # 13     ecut=    30.00 Ry     beta= 0.70
     Davidson diagonalization with overlap
     ethr =  7.98E-09,  avg # of iterations =  2.0

     total cpu time spent up to now is       24.5 secs

     total energy              =    -253.16268326 Ry
     estimated scf accuracy    <       0.00000039 Ry

     iteration # 14     ecut=    30.00 Ry     beta= 0.70
     Davidson diagonalization with overlap
     ethr =  1.62E-09,  avg # of iterations =  2.0

     total cpu time spent up to now is       25.0 secs

     total energy              =    -253.16268340 Ry
     estimated scf accuracy    <          6.5E-09 Ry

     iteration # 15     ecut=    30.00 Ry     beta= 0.70
     Davidson diagonalization with overlap
     ethr =  2.69E-11,  avg # of iterations =  3.9

     total cpu time spent up to now is       25.7 secs

     total energy              =    -253.16268344 Ry
     estimated scf accuracy    <       0.00000063 Ry

     iteration # 16     ecut=    30.00 Ry     beta= 0.70
     Davidson diagonalization with overlap
     ethr =  2.69E-11,  avg # of iterations =  2.2

     total cpu time spent up to now is       26.2 secs

     total energy              =    -253.16268335 Ry
     estimated scf accuracy    <       0.00000036 Ry

     iteration # 17     ecut=    30.00 Ry     beta= 0.70
     Davidson diagonalization with overlap
     ethr =  2.69E-11,  avg # of iterations =  2.8

     total cpu time spent up to now is       26.8 secs

     total energy              =    -253.16268329 Ry
     estimated scf accuracy    <       0.00000010 Ry

     iteration # 18     ecut=    30.00 Ry     beta= 0.70
     Davidson diagonalization with overlap
     ethr =  2.69E-11,  avg # of iterations =  3.1

     total cpu time spent up to now is       27.4 secs

     total energy              =    -253.16268332 Ry
     estimated scf accuracy    <       0.00000007 Ry

     iteration # 19     ecut=    30.00 Ry     beta= 0.70
     Davidson diagonalization with overlap
     ethr =  2.69E-11,  avg # of iterations =  2.8

     total cpu time spent up to now is       28.0 secs

     total energy              =    -253.16268334 Ry
     estimated scf accuracy    <          3.6E-09 Ry

     iteration # 20     ecut=    30.00 Ry     beta= 0.70
     Davidson diagonalization with overlap
     ethr =  1.50E-11,  avg # of iterations =  2.0

     total cpu time spent up to now is       28.4 secs

     total energy              =    -253.16268334 Ry
     estimated scf accuracy    <          8.2E-12 Ry

     iteration # 21     ecut=    30.00 Ry     beta= 0.70
     Davidson diagonalization with overlap
     ethr =  1.00E-13,  avg # of iterations =  2.2

     total cpu time spent up to now is       29.0 secs

     total energy              =    -253.16268334 Ry
     estimated scf accuracy    <          7.7E-12 Ry

     iteration # 22     ecut=    30.00 Ry     beta= 0.70
     Davidson diagonalization with overlap
     ethr =  1.00E-13,  avg # of iterations =  1.0

     total cpu time spent up to now is       29.4 secs

     End of self-consistent calculation

          k = 0.0793 0.1373 0.0667 (   480 PWs)   bands (ev):

     1.5767   3.1005   3.6247   3.7652   3.7918   3.9372   3.9987   4.0164
     4.0795   4.1876   4.4072   7.4839  10.9430  23.6518  23.8247  25.5793

          k = 0.0793 0.1373 0.2000 (   472 PWs)   bands (ev):

     2.3122   3.0428   3.6261   3.6966   3.7204   3.8916   3.9398   3.9593
     4.2406   4.2974   4.3609   5.1465  15.1738  20.1115  24.5045  24.7308

          k = 0.0793 0.3203 0.0667 (   478 PWs)   bands (ev):

     3.0087   3.2933   3.5393   3.6844   3.7624   3.9882   4.0450   4.1036
     4.3283   4.3842   4.6774   9.4217  12.8699  16.5157  20.9184  21.5136

          k = 0.0793 0.3203 0.2000 (   478 PWs)   bands (ev):

     3.1592   3.3269   3.4720   3.5539   3.8907   4.0174   4.0740   4.2197
     4.3423   4.3947   5.2087   6.8541  16.9129  17.3310  19.2173  21.5697

          k = 0.0793 0.5034 0.0667 (   481 PWs)   bands (ev):

     3.1171   3.1443   3.3593   3.7140   3.8701   3.9964   4.2646   4.3760
     4.4998   4.5394   7.8757  10.2861  13.1061  15.0415  16.9862  19.0883

          k = 0.0793 0.5034 0.2000 (   481 PWs)   bands (ev):

     3.0810   3.1564   3.4153   3.4220   3.9860   4.2103   4.2546   4.4430
     4.4742   4.5297   8.5826   9.8769  11.8827  13.1152  20.4362  20.5043

          k = 0.0793-0.4119 0.0667 (   478 PWs)   bands (ev):

     3.1447   3.2064   3.4186   3.7094   3.8888   3.9578   4.1580   4.3510
     4.3843   4.4775   5.9370  10.8422  13.3995  14.4113  18.4867  20.0442

          k = 0.0793-0.4119 0.2000 (   478 PWs)   bands (ev):

     3.1271   3.2208   3.4367   3.4705   4.0029   4.1399   4.2193   4.2915
     4.4196   4.4982   6.6665   8.3423  14.2281  15.7325  18.7635  20.9197

          k = 0.0793-0.2288 0.0667 (   472 PWs)   bands (ev):

     2.3045   3.2883   3.6051   3.7095   3.7535   3.8697   4.0229   4.0702
     4.1674   4.2049   4.4081   8.2921  11.7098  19.9883  22.1698  24.9231

          k = 0.0793-0.2288 0.2000 (   473 PWs)   bands (ev):

     2.8865   3.3297   3.5501   3.6127   3.6973   3.8155   4.0441   4.1278
     4.2575   4.3200   4.5111   5.8023  15.9155  20.4750  21.2029  22.5418

          k = 0.0793-0.0458 0.0667 (   480 PWs)   bands (ev):

     1.1812   2.9520   3.6207   3.7800   3.8366   3.8439   3.9028   4.1205
     4.1402   4.2838   4.4070   7.0242  10.5705  25.1270  25.6634  27.0609

          k = 0.0793-0.0458 0.2000 (   467 PWs)   bands (ev):

     1.9513   2.8161   3.6418   3.7669   3.7833   3.8363   3.8643   4.0696
     4.2434   4.2746   4.3497   4.7756  14.7970  19.7562  26.4467  28.0444

          k = 0.2378 0.4119 0.0667 (   480 PWs)   bands (ev):

     3.3685   3.4436   3.5447   3.6113   3.8576   3.8999   3.9553   4.1666
     4.3010   4.5093   7.2316  12.0873  14.3626  14.6158  15.5695  19.3175

          k = 0.2378 0.4119 0.2000 (   481 PWs)   bands (ev):

     3.3452   3.4019   3.5455   3.6800   3.7614   3.9366   4.0126   4.1320
     4.3879   4.5188   7.9944   9.6347  15.1991  15.4581  16.8690  16.9550

          k = 0.2378 0.5949 0.0667 (   485 PWs)   bands (ev):

     3.3541   3.4511   3.5487   3.6800   3.7810   3.9113   4.0082   4.2762
     4.2855   4.4458   9.2174  11.5764  13.8963  14.3723  16.3413  17.8196

          k = 0.2378 0.5949 0.2000 (   480 PWs)   bands (ev):

     3.3576   3.4616   3.5379   3.6526   3.7431   3.9506   4.0830   4.1344
     4.3831   4.4627   9.9856  11.4082  12.7987  14.1986  14.9601  16.5596

          k = 0.2378-0.3203 0.0667 (   479 PWs)   bands (ev):

     3.3284   3.3782   3.4846   3.6310   3.7925   3.9542   3.9829   4.1039
     4.3428   4.4711   5.6936  10.5711  14.0284  15.3159  17.5792  20.3262

          k = 0.2378-0.3203 0.2000 (   475 PWs)   bands (ev):

     3.2879   3.3802   3.4808   3.6110   3.8231   3.9531   4.0307   4.1756
     4.3854   4.5006   6.3798   8.0343  16.1340  17.3892  18.4183  18.5610

          k = 0.2378-0.1373 0.0667 (   478 PWs)   bands (ev):

     2.5850   3.2591   3.6348   3.7018   3.7310   4.0124   4.0701   4.0929
     4.1763   4.2028   4.4153   8.6672  12.0933  18.0840  23.0506  23.5897

          k = 0.2378-0.1373 0.2000 (   472 PWs)   bands (ev):

     2.9995   3.2883   3.5243   3.5690   3.8747   4.0117   4.0639   4.1397
     4.2511   4.3462   4.6161   6.1260  16.2636  18.8620  20.6808  21.2871

          k = 0.3963 0.6864 0.0667 (   475 PWs)   bands (ev):

     3.2484   3.2584   3.4483   3.7140   3.7889   4.0202   4.1157   4.3220
     4.4237   4.4699   9.3734   9.7544  14.5163  14.6012  16.7132  17.9119

          k = 0.3963 0.6864 0.2000 (   484 PWs)   bands (ev):

     3.2041   3.3087   3.4512   3.5203   3.8503   4.1124   4.2389   4.2906
     4.4199   4.4649  10.0760  10.2333  12.4133  12.4697  17.5873  19.2015

          k = 0.3963-0.2288 0.0667 (   482 PWs)   bands (ev):

     3.0715   3.1187   3.3549   3.7228   3.9214   3.9555   4.2822   4.3983
     4.5096   4.5346   6.6500  11.0158  12.4068  14.9256  17.1570  20.1723

          k = 0.3963-0.2288 0.2000 (   482 PWs)   bands (ev):

     3.0467   3.1218   3.3993   3.4214   4.0518   4.2194   4.2469   4.4247
     4.5202   4.5322   7.3860   8.9971  12.7455  14.2356  19.4411  22.7746

     the Fermi energy is    11.5621 ev

!    total energy              =    -253.16268334 Ry
     estimated scf accuracy    <          3.1E-14 Ry
     smearing contrib. (-TS)   =      -0.00041675 Ry
     internal energy E=F+TS    =    -253.16226659 Ry

     The total energy is F=E-TS. E is the sum of the following terms:
     one-electron contribution =    -129.51734811 Ry
     hartree contribution      =      92.83379921 Ry
     xc contribution           =     -37.04500122 Ry
     ewald contribution        =    -179.43371647 Ry

     convergence has been achieved in  22 iterations

     Forces acting on atoms (cartesian axes, Ry/au):

     atom    1 type  1   force =    -0.00000000   -0.00000000    0.00000000
     atom    2 type  1   force =     0.00000000    0.00000000   -0.00000000

     Total force =     0.000000     Total SCF correction =     0.000000


     Computing stress (Cartesian axis) and pressure

          total   stress  (Ry/bohr**3)                   (kbar)     P=       15.18
   0.00008513   0.00000000   0.00000000           12.52        0.00        0.00
   0.00000000   0.00008513   0.00000000            0.00       12.52        0.00
  -0.00000000  -0.00000000   0.00013939           -0.00       -0.00       20.50

     Energy error            =      2.3E-03
     Gradient error          =      4.8E-24
     Cell gradient error     =      1.4E-04


     number of scf cycles    =   3
     number of bfgs steps    =   2

     enthalpy old            =    -253.1603705718 Ry
     enthalpy new            =    -253.1626833401 Ry

     CASE: enthalpy_new < enthalpy_old

     new trust radius        =       0.0192988488 bohr
     new conv_thr            =            1.0E-12 Ry

     new unit-cell volume =    201.91512 a.u.^3 (    29.92073 Ang^3 )
     density =      0.11100 g/cm^3

CELL_PARAMETERS (alat=  4.80000000)
   1.056665273  -0.000000000   0.000000000
  -0.528332637   0.915098970   0.000000000
   0.000000000   0.000000000   1.888163668

ATOMIC_POSITIONS (crystal)
Zn           -0.0000000000       -0.0000000000        0.0000000000
Zn            0.6666666670        0.3333333330        0.5000000000



     Writing output data file /tmp/Zn.save/
     NEW-OLD atomic charge density approx. for the potential
     extrapolated charge   24.40177, renormalised to   24.00000

     total cpu time spent up to now is       30.3 secs

     Self-consistent Calculation

     iteration #  1     ecut=    30.00 Ry     beta= 0.70
     Davidson diagonalization with overlap
     ethr =  1.00E-06,  avg # of iterations =  5.2

     total cpu time spent up to now is       31.2 secs

     total energy              =    -252.99521663 Ry
     estimated scf accuracy    <       0.13427448 Ry

     iteration #  2     ecut=    30.00 Ry     beta= 0.70
     Davidson diagonalization with overlap
     ethr =  5.59E-04,  avg # of iterations =  2.7

     total cpu time spent up to now is       31.7 secs

     total energy              =    -253.15021238 Ry
     estimated scf accuracy    <       0.44518079 Ry

     iteration #  3     ecut=    30.00 Ry     beta= 0.70
     Davidson diagonalization with overlap
     ethr =  5.59E-04,  avg # of iterations =  2.0

     total cpu time spent up to now is       32.3 secs

     total energy              =    -253.16260521 Ry
     estimated scf accuracy    <       0.06864938 Ry

     iteration #  4     ecut=    30.00 Ry     beta= 0.70
     Davidson diagonalization with overlap
     ethr =  2.86E-04,  avg # of iterations =  1.0

     total cpu time spent up to now is       32.7 secs

     total energy              =    -253.16629830 Ry
     estimated scf accuracy    <       0.01419198 Ry

     iteration #  5     ecut=    30.00 Ry     beta= 0.70
     Davidson diagonalization with overlap
     ethr =  5.91E-05,  avg # of iterations =  1.0

     total cpu time spent up to now is       33.1 secs

     total energy              =    -253.16223685 Ry
     estimated scf accuracy    <       0.01155892 Ry

     iteration #  6     ecut=    30.00 Ry     beta= 0.70
     Davidson diagonalization with overlap
     ethr =  4.82E-05,  avg # of iterations =  1.4

     total cpu time spent up to now is       33.5 secs

     total energy              =    -253.16250442 Ry
     estimated scf accuracy    <       0.00137295 Ry

     iteration #  7     ecut=    30.00 Ry     beta= 0.70
     Davidson diagonalization with overlap
     ethr =  5.72E-06,  avg # of iterations =  2.0

     total cpu time spent up to now is       34.0 secs

     total energy              =    -253.16294126 Ry
     estimated scf accuracy    <       0.00002067 Ry

     iteration #  8     ecut=    30.00 Ry     beta= 0.70
     Davidson diagonalization with overlap
     ethr =  8.61E-08,  avg # of iterations =  2.9

     total cpu time spent up to now is       34.6 secs

     total energy              =    -253.16280098 Ry
     estimated scf accuracy    <       0.00024086 Ry

     iteration #  9     ecut=    30.00 Ry     beta= 0.70
     Davidson diagonalization with overlap
     ethr =  8.61E-08,  avg # of iterations =  3.0

     total cpu time spent up to now is       35.2 secs

     total energy              =    -253.16290056 Ry
     estimated scf accuracy    <       0.00008392 Ry

     iteration # 10     ecut=    30.00 Ry     beta= 0.70
     Davidson diagonalization with overlap
     ethr =  8.61E-08,  avg # of iterations =  2.0

     total cpu time spent up to now is       35.7 secs

     total energy              =    -253.16289065 Ry
     estimated scf accuracy    <       0.00002430 Ry

     iteration # 11     ecut=    30.00 Ry     beta= 0.70
     Davidson diagonalization with overlap
     ethr =  8.61E-08,  avg # of iterations =  2.0

     total cpu time spent up to now is       36.2 secs

     total energy              =    -253.16289689 Ry
     estimated scf accuracy    <       0.00000034 Ry

     iteration # 12     ecut=    30.00 Ry     beta= 0.70
     Davidson diagonalization with overlap
     ethr =  1.43E-09,  avg # of iterations =  1.1

     total cpu time spent up to now is       36.6 secs

     total energy              =    -253.16289688 Ry
     estimated scf accuracy    <       0.00000013 Ry

     iteration # 13     ecut=    30.00 Ry     beta= 0.70
     Davidson diagonalization with overlap
     ethr =  5.29E-10,  avg # of iterations =  1.0

     total cpu time spent up to now is       37.0 secs

     total energy              =    -253.16289686 Ry
     estimated scf accuracy    <       0.00000004 Ry

     iteration # 14     ecut=    30.00 Ry     beta= 0.70
     Davidson diagonalization with overlap
     ethr =  1.71E-10,  avg # of iterations =  2.0

     total cpu time spent up to now is       37.4 secs

     total energy              =    -253.16289687 Ry
     estimated scf accuracy    <          1.9E-09 Ry

     iteration # 15     ecut=    30.00 Ry     beta= 0.70
     Davidson diagonalization with overlap
     ethr =  7.88E-12,  avg # of iterations =  2.6

     total cpu time spent up to now is       37.9 secs

     total energy              =    -253.16289687 Ry
     estimated scf accuracy    <          5.3E-09 Ry

     iteration # 16     ecut=    30.00 Ry     beta= 0.70
     Davidson diagonalization with overlap
     ethr =  7.88E-12,  avg # of iterations =  1.0

     total cpu time spent up to now is       38.3 secs

     total energy              =    -253.16289687 Ry
     estimated scf accuracy    <          5.3E-09 Ry

     iteration # 17     ecut=    30.00 Ry     beta= 0.70
     Davidson diagonalization with overlap
     ethr =  7.88E-12,  avg # of iterations =  2.0

     total cpu time spent up to now is       38.9 secs

     total energy              =    -253.16289687 Ry
     estimated scf accuracy    <          1.6E-11 Ry

     iteration # 18     ecut=    30.00 Ry     beta= 0.70
     Davidson diagonalization with overlap
     ethr =  1.00E-13,  avg # of iterations =  2.2

     total cpu time spent up to now is       39.4 secs

     total energy              =    -253.16289687 Ry
     estimated scf accuracy    <          2.1E-11 Ry

     iteration # 19     ecut=    30.00 Ry     beta= 0.70
     Davidson diagonalization with overlap
     ethr =  1.00E-13,  avg # of iterations =  1.0

     total cpu time spent up to now is       39.8 secs

     total energy              =    -253.16289687 Ry
     estimated scf accuracy    <          5.5E-11 Ry

     iteration # 20     ecut=    30.00 Ry     beta= 0.70
     Davidson diagonalization with overlap
     ethr =  1.00E-13,  avg # of iterations =  1.0

     total cpu time spent up to now is       40.2 secs

     total energy              =    -253.16289687 Ry
     estimated scf accuracy    <          2.5E-11 Ry

     iteration # 21     ecut=    30.00 Ry     beta= 0.70
     Davidson diagonalization with overlap
     ethr =  1.00E-13,  avg # of iterations =  2.0

     total cpu time spent up to now is       40.7 secs

     total energy              =    -253.16289687 Ry
     estimated scf accuracy    <          1.7E-12 Ry

     iteration # 22     ecut=    30.00 Ry     beta= 0.70
     Davidson diagonalization with overlap
     ethr =  1.00E-13,  avg # of iterations =  1.0

     total cpu time spent up to now is       41.1 secs

     End of self-consistent calculation

          k = 0.0789 0.1366 0.0662 (   480 PWs)   bands (ev):

     1.4467   2.9108   3.4145   3.5506   3.5770   3.7191   3.7783   3.7987
     3.8576   3.9633   4.1735   7.2573  10.6618  23.2737  23.4630  25.1130

          k = 0.0789 0.1366 0.1986 (   472 PWs)   bands (ev):

     2.1683   2.8623   3.4178   3.4887   3.5085   3.6780   3.7244   3.7408
     4.0131   4.0696   4.1304   4.9299  14.8413  19.7166  24.1146  24.3602

          k = 0.0789 0.3187 0.0662 (   478 PWs)   bands (ev):

     2.8422   3.0961   3.3385   3.4770   3.5513   3.7715   3.8276   3.8799
     4.0987   4.1514   4.4595   9.1682  12.5826  16.2099  20.5793  21.1367

          k = 0.0789 0.3187 0.1986 (   478 PWs)   bands (ev):

     2.9774   3.1315   3.2721   3.3470   3.6778   3.7996   3.8528   3.9933
     4.1117   4.1621   5.0046   6.6360  16.5749  17.0135  18.8708  21.1946

          k = 0.0789 0.5009 0.0662 (   481 PWs)   bands (ev):

     2.9248   2.9538   3.1603   3.5044   3.6559   3.7779   4.0397   4.1424
     4.2653   4.3037   7.6661  10.0524  12.8068  14.7396  16.6362  18.7452

          k = 0.0789 0.5009 0.1986 (   481 PWs)   bands (ev):

     2.8932   2.9635   3.2132   3.2205   3.7679   3.9834   4.0279   4.2082
     4.2418   4.2940   8.3704   9.6601  11.5938  12.8261  20.0524  20.1682

          k = 0.0789-0.4098 0.0662 (   478 PWs)   bands (ev):

     2.9561   3.0127   3.2193   3.5010   3.6738   3.7406   3.9367   4.1213
     4.1511   4.2437   5.7347  10.5835  13.1220  14.1070  18.1330  19.7146

          k = 0.0789-0.4098 0.1986 (   478 PWs)   bands (ev):

     2.9394   3.0268   3.2368   3.2657   3.7846   3.9174   3.9923   4.0629
     4.1876   4.2629   6.4629   8.1183  13.9381  15.4257  18.3975  20.5751

          k = 0.0789-0.2277 0.0662 (   472 PWs)   bands (ev):

     2.1653   3.0927   3.3975   3.4994   3.5428   3.6531   3.8030   3.8490
     3.9426   3.9805   4.1743   8.0511  11.4272  19.6524  21.8175  24.5172

          k = 0.0789-0.2277 0.1986 (   473 PWs)   bands (ev):

     2.7293   3.1377   3.3483   3.4043   3.4888   3.6022   3.8240   3.9053
     4.0292   4.0896   4.2890   5.5858  15.5782  20.1066  20.8235  22.1720

          k = 0.0789-0.0455 0.0662 (   480 PWs)   bands (ev):

     1.0553   2.7661   3.4095   3.5657   3.6201   3.6280   3.6844   3.8979
     3.9168   4.0565   4.1735   6.8096  10.2889  24.6710  25.2675  26.6516

          k = 0.0789-0.0455 0.1986 (   467 PWs)   bands (ev):

     1.8118   2.6424   3.4340   3.5536   3.5700   3.6209   3.6476   3.8576
     4.0158   4.0470   4.1181   4.5610  14.4669  19.3638  26.0473  27.6252

          k = 0.2366 0.4098 0.0662 (   480 PWs)   bands (ev):

     3.1715   3.2444   3.3416   3.4087   3.6423   3.6899   3.7373   3.9395
     4.0693   4.2736   7.0162  11.8161  14.0668  14.3428  15.2570  18.9574

          k = 0.2366 0.4098 0.1986 (   481 PWs)   bands (ev):

     3.1492   3.2054   3.3413   3.4706   3.5515   3.7219   3.7931   3.9071
     4.1554   4.2822   7.7740   9.3957  14.8927  15.1743  16.5394  16.6484

          k = 0.2366 0.5919 0.0662 (   485 PWs)   bands (ev):

     3.1576   3.2511   3.3474   3.4729   3.5690   3.6984   3.7886   4.0449
     4.0553   4.2113   8.9881  11.3276  13.6294  14.0587  16.0253  17.4732

          k = 0.2366 0.5919 0.1986 (   480 PWs)   bands (ev):

     3.1614   3.2617   3.3345   3.4449   3.5333   3.7352   3.8616   3.9100
     4.1500   4.2273   9.7500  11.1674  12.5111  13.9101  14.6615  16.2460

          k = 0.2366-0.3187 0.0662 (   479 PWs)   bands (ev):

     3.1379   3.1791   3.2878   3.4265   3.5797   3.7416   3.7648   3.8788
     4.1102   4.2371   5.4832  10.3077  13.7352  15.0178  17.2700  19.9590

          k = 0.2366-0.3187 0.1986 (   475 PWs)   bands (ev):

     3.0964   3.1851   3.2779   3.4030   3.6115   3.7376   3.8108   3.9499
     4.1535   4.2648   6.1712   7.8080  15.8291  17.0644  18.0984  18.2021

          k = 0.2366-0.1366 0.0662 (   478 PWs)   bands (ev):

     2.4380   3.0631   3.4293   3.4928   3.5222   3.7936   3.8545   3.8698
     3.9512   3.9765   4.1810   8.4216  11.8096  17.7651  22.6622  23.2250

          k = 0.2366-0.1366 0.1986 (   472 PWs)   bands (ev):

     2.8311   3.0949   3.3237   3.3620   3.6637   3.7958   3.8433   3.9161
     4.0229   4.1144   4.4025   5.9101  15.9249  18.5322  20.3261  20.8818

          k = 0.3943 0.6830 0.0662 (   475 PWs)   bands (ev):

     3.0556   3.0624   3.2476   3.5049   3.5770   3.8007   3.8970   4.0897
     4.1909   4.2349   9.1597   9.5087  14.2100  14.2962  16.4136  17.5467

          k = 0.3943 0.6830 0.1986 (   484 PWs)   bands (ev):

     3.0129   3.1123   3.2499   3.3142   3.6373   3.8893   4.0136   4.0640
     4.1865   4.2292   9.8601   9.9986  12.1208  12.1848  17.2732  18.8642

          k = 0.3943-0.2277 0.0662 (   482 PWs)   bands (ev):

     2.8821   2.9278   3.1564   3.5131   3.7056   3.7384   4.0558   4.1644
     4.2753   4.2991   6.4496  10.7797  12.1113  14.6255  16.8078  19.8162

          k = 0.3943-0.2277 0.1986 (   482 PWs)   bands (ev):

     2.8601   2.9299   3.1974   3.2206   3.8312   3.9939   4.0189   4.1903
     4.2854   4.2968   7.1825   8.7757  12.4624  13.9400  19.0691  22.3666

     the Fermi energy is    11.3019 ev

!    total energy              =    -253.16289687 Ry
     estimated scf accuracy    <          2.7E-13 Ry
     smearing contrib. (-TS)   =      -0.00053094 Ry
     internal energy E=F+TS    =    -253.16236593 Ry

     The total energy is F=E-TS. E is the sum of the following terms:
     one-electron contribution =    -131.17921978 Ry
     hartree contribution      =      93.46640733 Ry
     xc contribution           =     -37.03194906 Ry
     ewald contribution        =    -178.41760442 Ry

     convergence has been achieved in  22 iterations

     Forces acting on atoms (cartesian axes, Ry/au):

     atom    1 type  1   force =    -0.00000000   -0.00000000    0.00000000
     atom    2 type  1   force =     0.00000000    0.00000000   -0.00000000

     Total force =     0.000000     Total SCF correction =     0.000000


     Computing stress (Cartesian axis) and pressure

          total   stress  (Ry/bohr**3)                   (kbar)     P=        2.08
  -0.00001723   0.00000000  -0.00000000           -2.54        0.00       -0.00
   0.00000000  -0.00001723   0.00000000            0.00       -2.54        0.00
   0.00000000   0.00000000   0.00007679            0.00        0.00       11.30

     Energy error            =      2.1E-04
     Gradient error          =      7.2E-24
     Cell gradient error     =      7.7E-05


     number of scf cycles    =   4
     number of bfgs steps    =   3

     enthalpy old            =    -253.1626833401 Ry
     enthalpy new            =    -253.1628968700 Ry

     CASE: enthalpy_new < enthalpy_old

     new trust radius        =       0.0110223172 bohr
     new conv_thr            =            1.0E-12 Ry

     new unit-cell volume =    202.92244 a.u.^3 (    30.07000 Ang^3 )
     density =      0.11044 g/cm^3

CELL_PARAMETERS (alat=  4.80000000)
   1.057249482  -0.000000000   0.000000000
  -0.528624741   0.915604910   0.000000000
   0.000000000   0.000000000   1.895486821

ATOMIC_POSITIONS (crystal)
Zn           -0.0000000000       -0.0000000000       -0.0000000000
Zn            0.6666666670        0.3333333330        0.5000000000



     Writing output data file /tmp/Zn.save/
     NEW-OLD atomic charge density approx. for the potential
     extrapolated charge   24.11914, renormalised to   24.00000

     total cpu time spent up to now is       42.1 secs

     Self-consistent Calculation

     iteration #  1     ecut=    30.00 Ry     beta= 0.70
     Davidson diagonalization with overlap
     ethr =  1.00E-06,  avg # of iterations =  3.5

     total cpu time spent up to now is       42.8 secs

     total energy              =    -253.15010454 Ry
     estimated scf accuracy    <       0.01013217 Ry

     iteration #  2     ecut=    30.00 Ry     beta= 0.70
     Davidson diagonalization with overlap
     ethr =  4.22E-05,  avg # of iterations =  2.8

     total cpu time spent up to now is       43.4 secs

     total energy              =    -253.16120990 Ry
     estimated scf accuracy    <       0.03833053 Ry

     iteration #  3     ecut=    30.00 Ry     beta= 0.70
     Davidson diagonalization with overlap
     ethr =  4.22E-05,  avg # of iterations =  2.0

     total cpu time spent up to now is       43.9 secs

     total energy              =    -253.16257148 Ry
     estimated scf accuracy    <       0.00499418 Ry

     iteration #  4     ecut=    30.00 Ry     beta= 0.70
     Davidson diagonalization with overlap
     ethr =  2.08E-05,  avg # of iterations =  1.8

     total cpu time spent up to now is       44.3 secs

     total energy              =    -253.16321758 Ry
     estimated scf accuracy    <       0.00049438 Ry

     iteration #  5     ecut=    30.00 Ry     beta= 0.70
     Davidson diagonalization with overlap
     ethr =  2.06E-06,  avg # of iterations =  1.0

     total cpu time spent up to now is       44.7 secs

     total energy              =    -253.16273285 Ry
     estimated scf accuracy    <       0.00097149 Ry

     iteration #  6     ecut=    30.00 Ry     beta= 0.70
     Davidson diagonalization with overlap
     ethr =  2.06E-06,  avg # of iterations =  2.0

     total cpu time spent up to now is       45.2 secs

     total energy              =    -253.16294887 Ry
     estimated scf accuracy    <       0.00000061 Ry

     iteration #  7     ecut=    30.00 Ry     beta= 0.70
     Davidson diagonalization with overlap
     ethr =  2.56E-09,  avg # of iterations =  3.1

     total cpu time spent up to now is       45.8 secs

     total energy              =    -253.16294919 Ry
     estimated scf accuracy    <       0.00000375 Ry

     iteration #  8     ecut=    30.00 Ry     beta= 0.70
     Davidson diagonalization with overlap
     ethr =  2.56E-09,  avg # of iterations =  2.0

     total cpu time spent up to now is       46.3 secs

     total energy              =    -253.16294818 Ry
     estimated scf accuracy    <       0.00000174 Ry

     iteration #  9     ecut=    30.00 Ry     beta= 0.70
     Davidson diagonalization with overlap
     ethr =  2.56E-09,  avg # of iterations =  2.1

     total cpu time spent up to now is       46.8 secs

     total energy              =    -253.16294873 Ry
     estimated scf accuracy    <       0.00000018 Ry

     iteration # 10     ecut=    30.00 Ry     beta= 0.70
     Davidson diagonalization with overlap
     ethr =  7.40E-10,  avg # of iterations =  1.1

     total cpu time spent up to now is       47.2 secs

     total energy              =    -253.16294874 Ry
     estimated scf accuracy    <       0.00000002 Ry

     iteration # 11     ecut=    30.00 Ry     beta= 0.70
     Davidson diagonalization with overlap
     ethr =  7.73E-11,  avg # of iterations =  2.0

     total cpu time spent up to now is       47.7 secs

     total energy              =    -253.16294874 Ry
     estimated scf accuracy    <          9.6E-10 Ry

     iteration # 12     ecut=    30.00 Ry     beta= 0.70
     Davidson diagonalization with overlap
     ethr =  3.99E-12,  avg # of iterations =  2.0

     total cpu time spent up to now is       48.2 secs

     total energy              =    -253.16294874 Ry
     estimated scf accuracy    <          1.3E-11 Ry

     iteration # 13     ecut=    30.00 Ry     beta= 0.70
     Davidson diagonalization with overlap
     ethr =  1.00E-13,  avg # of iterations =  4.0

     total cpu time spent up to now is       48.9 secs

     total energy              =    -253.16294874 Ry
     estimated scf accuracy    <          1.1E-09 Ry

     iteration # 14     ecut=    30.00 Ry     beta= 0.70
     Davidson diagonalization with overlap
     ethr =  1.00E-13,  avg # of iterations =  2.9

     total cpu time spent up to now is       49.5 secs

     total energy              =    -253.16294874 Ry
     estimated scf accuracy    <          1.8E-10 Ry

     iteration # 15     ecut=    30.00 Ry     beta= 0.70
     Davidson diagonalization with overlap
     ethr =  1.00E-13,  avg # of iterations =  2.0

     total cpu time spent up to now is       50.1 secs

     total energy              =    -253.16294874 Ry
     estimated scf accuracy    <          1.3E-11 Ry

     iteration # 16     ecut=    30.00 Ry     beta= 0.70
     Davidson diagonalization with overlap
     ethr =  1.00E-13,  avg # of iterations =  2.0

     total cpu time spent up to now is       50.6 secs

     End of self-consistent calculation

          k = 0.0788 0.1365 0.0659 (   480 PWs)   bands (ev):

     1.4091   2.8516   3.3501   3.4851   3.5117   3.6550   3.7126   3.7349
     3.7938   3.8977   4.1040   7.1755  10.5490  23.2063  23.3928  24.8974

          k = 0.0788 0.1365 0.1978 (   472 PWs)   bands (ev):

     2.1227   2.8035   3.3549   3.4272   3.4451   3.6139   3.6608   3.6764
     3.9466   4.0026   4.0621   4.8615  14.6987  19.5389  24.0402  24.2866

          k = 0.0788 0.3186 0.0659 (   478 PWs)   bands (ev):

     2.7942   3.0363   3.2785   3.4152   3.4884   3.7098   3.7631   3.8119
     4.0319   4.0817   4.3974   9.0775  12.4746  16.1485  20.5160  21.0327

          k = 0.0788 0.3186 0.1978 (   478 PWs)   bands (ev):

     2.9236   3.0713   3.2133   3.2835   3.6144   3.7349   3.7890   3.9271
     4.0436   4.0934   4.9454   6.5666  16.4396  16.9445  18.7829  21.0740

          k = 0.0788 0.5006 0.0659 (   481 PWs)   bands (ev):

     2.8655   2.8965   3.0994   3.4412   3.5953   3.7139   3.9739   4.0719
     4.1974   4.2356   7.6144   9.9969  12.7121  14.6452  16.5182  18.6328

          k = 0.0788 0.5006 0.1978 (   481 PWs)   bands (ev):

     2.8371   2.9035   3.1507   3.1608   3.7054   3.9163   3.9611   4.1381
     4.1750   4.2256   8.3149   9.5991  11.5210  12.7481  19.9131  20.0942

          k = 0.0788-0.4096 0.0659 (   478 PWs)   bands (ev):

     2.8989   2.9540   3.1587   3.4390   3.6114   3.6782   3.8712   4.0540
     4.0809   4.1761   5.6814  10.4933  13.0607  14.0007  18.0286  19.6528

          k = 0.0788-0.4096 0.1978 (   478 PWs)   bands (ev):

     2.8835   2.9668   3.1775   3.2026   3.7219   3.8522   3.9255   3.9947
     4.1197   4.1940   6.4068   8.0496  13.8716  15.3450  18.2564  20.5036

          k = 0.0788-0.2275 0.0659 (   472 PWs)   bands (ev):

     2.1265   3.0334   3.3352   3.4351   3.4798   3.5865   3.7393   3.7848
     3.8766   3.9145   4.1043   7.9642  11.3169  19.5884  21.7523  24.4111

          k = 0.0788-0.2275 0.1978 (   473 PWs)   bands (ev):

     2.6819   3.0774   3.2890   3.3412   3.4260   3.5368   3.7613   3.8407
     3.9617   4.0212   4.2228   5.5163  15.4366  19.9762  20.7074  22.0873

          k = 0.0788-0.0455 0.0659 (   480 PWs)   bands (ev):

     1.0180   2.7069   3.3435   3.5013   3.5546   3.5639   3.6187   3.8345
     3.8537   3.9888   4.1043   6.7317  10.1745  24.4593  25.1900  26.5822

          k = 0.0788-0.0455 0.1978 (   467 PWs)   bands (ev):

     1.7665   2.5841   3.3708   3.4901   3.5065   3.5574   3.5833   3.7936
     3.9498   3.9806   4.0498   4.4943  14.3239  19.1850  25.9719  27.5370

          k = 0.2365 0.4096 0.0659 (   480 PWs)   bands (ev):

     3.1140   3.1857   3.2818   3.3495   3.5777   3.6281   3.6721   3.8705
     3.9982   4.2045   6.9629  11.7251  14.0051  14.2850  15.1499  18.8576

          k = 0.2365 0.4096 0.1978 (   481 PWs)   bands (ev):

     3.0919   3.1487   3.2796   3.4064   3.4902   3.6572   3.7281   3.8400
     4.0861   4.2121   7.7162   9.3255  14.8255  15.1091  16.4589  16.5667

          k = 0.2365 0.5916 0.0659 (   485 PWs)   bands (ev):

     3.1009   3.1918   3.2889   3.4118   3.5060   3.6356   3.7226   3.9735
     3.9858   4.1415   8.9346  11.2724  13.5639  13.9708  15.9290  17.3626

          k = 0.2365 0.5916 0.1978 (   480 PWs)   bands (ev):

     3.1044   3.2038   3.2731   3.3832   3.4707   3.6709   3.7956   3.8426
     4.0803   4.1571   9.6915  11.1026  12.4406  13.8339  14.5936  16.1663

          k = 0.2365-0.3186 0.0659 (   479 PWs)   bands (ev):

     3.0822   3.1196   3.2295   3.3664   3.5154   3.6789   3.7013   3.8103
     4.0397   4.1691   5.4274  10.2155  13.6290  14.9564  17.2090  19.8556

          k = 0.2365-0.3186 0.1978 (   475 PWs)   bands (ev):

     3.0405   3.1276   3.2166   3.3386   3.5489   3.6730   3.7467   3.8832
     4.0845   4.1955   6.1136   7.7382  15.7619  16.9644  18.0291  18.0849

          k = 0.2365-0.1365 0.0659 (   478 PWs)   bands (ev):

     2.3966   3.0034   3.3676   3.4291   3.4608   3.7323   3.7898   3.8017
     3.8853   3.9101   4.1109   8.3329  11.7002  17.7026  22.5575  23.1613

          k = 0.2365-0.1365 0.1978 (   472 PWs)   bands (ev):

     2.7804   3.0344   3.2649   3.2991   3.6006   3.7302   3.7807   3.8515
     3.9557   4.0455   4.3389   5.8406  15.7845  18.4600  20.2415  20.7074

          k = 0.3941 0.6826 0.0659 (   475 PWs)   bands (ev):

     2.9990   3.0028   3.1866   3.4424   3.5162   3.7360   3.8333   4.0187
     4.1223   4.1654   9.1085   9.4529  14.1087  14.2068  16.3539  17.4238

          k = 0.3941 0.6826 0.1978 (   484 PWs)   bands (ev):

     2.9567   3.0520   3.1908   3.2503   3.5759   3.8228   3.9477   3.9977
     4.1173   4.1588   9.8040   9.9414  12.0446  12.1047  17.2055  18.7816

          k = 0.3941-0.2275 0.0659 (   482 PWs)   bands (ev):

     2.8237   2.8696   3.0959   3.4498   3.6451   3.6743   3.9888   4.0941
     4.2083   4.2314   6.3981  10.7093  12.0315  14.5230  16.6990  19.7009

          k = 0.3941-0.2275 0.1978 (   482 PWs)   bands (ev):

     2.8040   2.8700   3.1350   3.1611   3.7682   3.9272   3.9520   4.1198
     4.2181   4.2291   7.1275   8.7091  12.3950  13.8615  18.9253  22.2084

     the Fermi energy is    11.2267 ev

!    total energy              =    -253.16294874 Ry
     estimated scf accuracy    <          3.7E-13 Ry
     smearing contrib. (-TS)   =      -0.00061265 Ry
     internal energy E=F+TS    =    -253.16233609 Ry

     The total energy is F=E-TS. E is the sum of the following terms:
     one-electron contribution =    -131.69546863 Ry
     hartree contribution      =      93.66576876 Ry
     xc contribution           =     -37.02827114 Ry
     ewald contribution        =    -178.10436508 Ry

     convergence has been achieved in  16 iterations

     Forces acting on atoms (cartesian axes, Ry/au):

     atom    1 type  1   force =     0.00000000    0.00000000   -0.00000000
     atom    2 type  1   force =    -0.00000000   -0.00000000    0.00000000

     Total force =     0.000000     Total SCF correction =     0.000000


     Computing stress (Cartesian axis) and pressure

          total   stress  (Ry/bohr**3)                   (kbar)     P=       -1.16
  -0.00004936  -0.00000000  -0.00000000           -7.26       -0.00       -0.00
  -0.00000000  -0.00004936  -0.00000000           -0.00       -7.26       -0.00
  -0.00000000  -0.00000000   0.00007515           -0.00       -0.00       11.05

     Energy error            =      5.2E-05
     Gradient error          =      1.8E-24
     Cell gradient error     =      7.5E-05


     number of scf cycles    =   5
     number of bfgs steps    =   4

     enthalpy old            =    -253.1628968700 Ry
     enthalpy new            =    -253.1629487441 Ry

     CASE: enthalpy_new < enthalpy_old


     WARNING: bfgs curvature condition failed, Theta= 0.941
     new trust radius        =       0.0165106299 bohr
     new conv_thr            =            1.0E-12 Ry

     new unit-cell volume =    204.16348 a.u.^3 (    30.25391 Ang^3 )
     density =      0.10977 g/cm^3

CELL_PARAMETERS (alat=  4.80000000)
   1.057417977  -0.000000000   0.000000000
  -0.528708989   0.915750831   0.000000000
   0.000000000   0.000000000   1.906471551

ATOMIC_POSITIONS (crystal)
Zn           -0.0000000000       -0.0000000000        0.0000000000
Zn            0.6666666670        0.3333333330        0.5000000000



     Writing output data file /tmp/Zn.save/
     NEW-OLD atomic charge density approx. for the potential
     extrapolated charge   24.14589, renormalised to   24.00000

     total cpu time spent up to now is       51.5 secs

     Self-consistent Calculation

     iteration #  1     ecut=    30.00 Ry     beta= 0.70
     Davidson diagonalization with overlap
     ethr =  1.00E-06,  avg # of iterations =  4.0

     total cpu time spent up to now is       52.3 secs

     total energy              =    -253.14348901 Ry
     estimated scf accuracy    <       0.01545365 Ry

     iteration #  2     ecut=    30.00 Ry     beta= 0.70
     Davidson diagonalization with overlap
     ethr =  6.44E-05,  avg # of iterations =  2.7

     total cpu time spent up to now is       52.9 secs

     total energy              =    -253.16049624 Ry
     estimated scf accuracy    <       0.05769943 Ry

     iteration #  3     ecut=    30.00 Ry     beta= 0.70
     Davidson diagonalization with overlap
     ethr =  6.44E-05,  avg # of iterations =  2.0

     total cpu time spent up to now is       53.4 secs

     total energy              =    -253.16254372 Ry
     estimated scf accuracy    <       0.00763401 Ry

     iteration #  4     ecut=    30.00 Ry     beta= 0.70
     Davidson diagonalization with overlap
     ethr =  3.18E-05,  avg # of iterations =  1.7

     total cpu time spent up to now is       53.8 secs

     total energy              =    -253.16345565 Ry
     estimated scf accuracy    <       0.00086717 Ry

     iteration #  5     ecut=    30.00 Ry     beta= 0.70
     Davidson diagonalization with overlap
     ethr =  3.61E-06,  avg # of iterations =  1.0

     total cpu time spent up to now is       54.2 secs

     total energy              =    -253.16270294 Ry
     estimated scf accuracy    <       0.00149568 Ry

     iteration #  6     ecut=    30.00 Ry     beta= 0.70
     Davidson diagonalization with overlap
     ethr =  3.61E-06,  avg # of iterations =  2.0

     total cpu time spent up to now is       54.7 secs

     total energy              =    -253.16303810 Ry
     estimated scf accuracy    <       0.00000110 Ry

     iteration #  7     ecut=    30.00 Ry     beta= 0.70
     Davidson diagonalization with overlap
     ethr =  4.57E-09,  avg # of iterations =  3.1

     total cpu time spent up to now is       55.3 secs

     total energy              =    -253.16303973 Ry
     estimated scf accuracy    <       0.00000705 Ry

     iteration #  8     ecut=    30.00 Ry     beta= 0.70
     Davidson diagonalization with overlap
     ethr =  4.57E-09,  avg # of iterations =  1.0

     total cpu time spent up to now is       55.7 secs

     total energy              =    -253.16303789 Ry
     estimated scf accuracy    <       0.00000660 Ry

     iteration #  9     ecut=    30.00 Ry     beta= 0.70
     Davidson diagonalization with overlap
     ethr =  4.57E-09,  avg # of iterations =  2.0

     total cpu time spent up to now is       56.3 secs

     total energy              =    -253.16303717 Ry
     estimated scf accuracy    <       0.00000172 Ry

     iteration # 10     ecut=    30.00 Ry     beta= 0.70
     Davidson diagonalization with overlap
     ethr =  4.57E-09,  avg # of iterations =  2.0

     total cpu time spent up to now is       56.8 secs

     total energy              =    -253.16303778 Ry
     estimated scf accuracy    <       0.00000016 Ry

     iteration # 11     ecut=    30.00 Ry     beta= 0.70
     Davidson diagonalization with overlap
     ethr =  6.86E-10,  avg # of iterations =  1.0

     total cpu time spent up to now is       57.2 secs

     total energy              =    -253.16303774 Ry
     estimated scf accuracy    <       0.00000019 Ry

     iteration # 12     ecut=    30.00 Ry     beta= 0.70
     Davidson diagonalization with overlap
     ethr =  6.86E-10,  avg # of iterations =  1.0

     total cpu time spent up to now is       57.6 secs

     total energy              =    -253.16303769 Ry
     estimated scf accuracy    <       0.00000007 Ry

     iteration # 13     ecut=    30.00 Ry     beta= 0.70
     Davidson diagonalization with overlap
     ethr =  2.98E-10,  avg # of iterations =  2.0

     total cpu time spent up to now is       58.1 secs

     total energy              =    -253.16303772 Ry
     estimated scf accuracy    <       0.00000005 Ry

     iteration # 14     ecut=    30.00 Ry     beta= 0.70
     Davidson diagonalization with overlap
     ethr =  1.91E-10,  avg # of iterations =  1.5

     total cpu time spent up to now is       58.5 secs

     total energy              =    -253.16303773 Ry
     estimated scf accuracy    <          1.8E-09 Ry

     iteration # 15     ecut=    30.00 Ry     beta= 0.70
     Davidson diagonalization with overlap
     ethr =  7.33E-12,  avg # of iterations =  2.0

     total cpu time spent up to now is       59.0 secs

     total energy              =    -253.16303773 Ry
     estimated scf accuracy    <          1.4E-11 Ry

     iteration # 16     ecut=    30.00 Ry     beta= 0.70
     Davidson diagonalization with overlap
     ethr =  1.00E-13,  avg # of iterations =  3.0

     total cpu time spent up to now is       59.6 secs

     total energy              =    -253.16303773 Ry
     estimated scf accuracy    <          6.7E-11 Ry

     iteration # 17     ecut=    30.00 Ry     beta= 0.70
     Davidson diagonalization with overlap
     ethr =  1.00E-13,  avg # of iterations =  2.0

     total cpu time spent up to now is       60.1 secs

     End of self-consistent calculation

          k = 0.0788 0.1365 0.0656 (   480 PWs)   bands (ev):

     1.3633   2.7770   3.2698   3.4034   3.4305   3.5762   3.6316   3.6567
     3.7164   3.8176   4.0186   7.0670  10.3953  23.1480  23.3251  24.5934

          k = 0.0788 0.1365 0.1967 (   472 PWs)   bands (ev):

     2.0649   2.7282   3.2770   3.3514   3.3667   3.5347   3.5827   3.5974
     3.8656   3.9205   3.9782   4.7753  14.5005  19.2883  23.9715  24.2162

          k = 0.0788 0.3185 0.0656 (   478 PWs)   bands (ev):

     2.7355   2.9621   3.2043   3.3388   3.4111   3.6352   3.6839   3.7276
     3.9504   3.9957   4.3226   8.9573  12.3305  16.0891  20.4588  20.9093

          k = 0.0788 0.3185 0.1967 (   478 PWs)   bands (ev):

     2.8571   2.9958   3.1414   3.2043   3.5362   3.6549   3.7115   3.8462
     3.9599   4.0090   4.8735   6.4787  16.2545  16.8734  18.6838  20.9017

          k = 0.0788 0.5005 0.0656 (   481 PWs)   bands (ev):

     2.7912   2.8253   3.0234   3.3628   3.5222   3.6357   3.8933   3.9844
     4.1147   4.1529   7.5567   9.9362  12.5927  14.5269  16.3661  18.4898

          k = 0.0788 0.5005 0.1967 (   481 PWs)   bands (ev):

     2.7676   2.8280   3.0721   3.0878   3.6296   3.8340   3.8792   4.0516
     4.0939   4.1422   8.2509   9.5258  11.4388  12.6567  19.7238  20.0223

          k = 0.0788-0.4095 0.0656 (   478 PWs)   bands (ev):

     2.8275   2.8811   3.0835   3.3624   3.5351   3.6025   3.7905   3.9713
     3.9942   4.0939   5.6198  10.3751  12.9970  13.8624  17.9009  19.5966

          k = 0.0788-0.4095 0.1967 (   478 PWs)   bands (ev):

     2.8144   2.8915   3.1044   3.1243   3.6458   3.7724   3.8437   3.9107
     4.0367   4.1099   6.3403   7.9639  13.8008  15.2514  18.0664  20.4322

          k = 0.0788-0.2275 0.0656 (   472 PWs)   bands (ev):

     2.0800   2.9597   3.2581   3.3549   3.4022   3.5035   3.6617   3.7067
     3.7958   3.8337   4.0180   7.8488  11.1678  19.5293  21.6936  24.2887

          k = 0.0788-0.2275 0.1967 (   473 PWs)   bands (ev):

     2.6229   3.0014   3.2164   3.2630   3.3483   3.4553   3.6854   3.7619
     3.8789   3.9372   4.1413   5.4281  15.2408  19.7895  20.5786  21.9972

          k = 0.0788-0.0455 0.0656 (   480 PWs)   bands (ev):

     0.9721   2.6315   3.2606   3.4216   3.4733   3.4847   3.5374   3.7578
     3.7776   3.9054   4.0195   6.6284  10.0180  24.1532  25.1221  26.5255

          k = 0.0788-0.0455 0.1967 (   467 PWs)   bands (ev):

     1.7086   2.5087   3.2922   3.4118   3.4282   3.4793   3.5040   3.7144
     3.8694   3.8994   3.9662   4.4108  14.1246  18.9324  25.9030  27.4490

          k = 0.2364 0.4095 0.0656 (   480 PWs)   bands (ev):

     3.0437   3.1134   3.2082   3.2773   3.4977   3.5522   3.5917   3.7850
     3.9096   4.1198   6.9032  11.6074  13.9439  14.2267  15.0114  18.7389

          k = 0.2364 0.4095 0.1967 (   481 PWs)   bands (ev):

     3.0219   3.0798   3.2030   3.3261   3.4154   3.5770   3.6481   3.7572
     4.0007   4.1261   7.6493   9.2398  14.7561  15.0394  16.3698  16.4713

          k = 0.2364 0.5915 0.0656 (   485 PWs)   bands (ev):

     3.0319   3.1187   3.2175   3.3367   3.4286   3.5585   3.6410   3.8843
     3.8998   4.0557   8.8770  11.2147  13.4878  13.8689  15.8098  17.2227

          k = 0.2364 0.5915 0.1967 (   480 PWs)   bands (ev):

     3.0350   3.1334   3.1967   3.3069   3.3936   3.5916   3.7142   3.7593
     3.9943   4.0705   9.6259  11.0263  12.3624  13.7456  14.5216  16.0760

          k = 0.2364-0.3185 0.0656 (   479 PWs)   bands (ev):

     3.0138   3.0460   3.1577   3.2928   3.4358   3.6018   3.6238   3.7250
[...]

!    total energy              =    -253.16552816 Ry
     estimated scf accuracy    <          1.5E-14 Ry
     smearing contrib. (-TS)   =       0.00040703 Ry
     internal energy E=F+TS    =    -253.16593520 Ry

     The total energy is F=E-TS. E is the sum of the following terms:
     one-electron contribution =    -134.95799462 Ry
     hartree contribution      =      95.03529033 Ry
     xc contribution           =     -37.02018022 Ry
     ewald contribution        =    -176.22305068 Ry

     convergence has been achieved in   9 iterations

     Forces acting on atoms (cartesian axes, Ry/au):

     atom    1 type  1   force =     0.00000000    0.00000000   -0.00000000
     atom    2 type  1   force =    -0.00000000   -0.00000000    0.00000000

     Total force =     0.000000     Total SCF correction =     0.000000


     Computing stress (Cartesian axis) and pressure

          total   stress  (Ry/bohr**3)                   (kbar)     P=       -0.05
  -0.00000046   0.00000000   0.00000000           -0.07        0.00        0.00
   0.00000000  -0.00000046  -0.00000000            0.00       -0.07       -0.00
   0.00000000   0.00000000  -0.00000013            0.00        0.00       -0.02

     Energy error            =      3.1E-06
     Gradient error          =      1.2E-24
     Cell gradient error     =      4.6E-07


     bfgs converged in  15 scf cycles and  14 bfgs steps
     (criteria: energy <  1.0E-04 Ry, force <  1.0E-03Ry/Bohr, cell <  5.0E-01kbar)

     End of BFGS Geometry Optimization

     Final enthalpy =    -253.1655281630 Ry

     File /tmp/Zn.bfgs deleted, as requested
Begin final coordinates
     new unit-cell volume =    206.84970 a.u.^3 (    30.65196 Ang^3 )
     density =      0.10835 g/cm^3

CELL_PARAMETERS (alat=  4.80000000)
   1.033438271  -0.000000000   0.000000000
  -0.516719135   0.894983796   0.000000000
   0.000000000   0.000000000   2.022234268

ATOMIC_POSITIONS (crystal)
Zn            0.0000000000       -0.0000000000       -0.0000000000
Zn            0.6666666670        0.3333333330        0.5000000000
End final coordinates



     Writing output data file /tmp/Zn.save/

     Final scf calculation at the relaxed structure.
     The G-vectors are recalculated for the final unit cell
     Results may differ from those at the preceding step.

     G-vector sticks info
     --------------------
     sticks:   dense  smooth     PW     G-vecs:    dense   smooth      PW
     Sum         421     199     73                12935     4599    1005



     bravais-lattice index     =            4
     lattice parameter (alat)  =       4.8000  a.u.
     unit-cell volume          =     206.8497 (a.u.)^3
     number of atoms/cell      =            2
     number of atomic types    =            1
     number of electrons       =        24.00
     number of Kohn-Sham states=           16
     kinetic-energy cutoff     =      30.0000  Ry
     charge density cutoff     =     240.0000  Ry
     scf convergence threshold =      1.0E-12
     mixing beta               =       0.7000
     number of iterations used =            8  plain     mixing
     press convergence thresh. =      5.0E-01
     Exchange-correlation=  SLA  PW   PBE  PBE
                           (   1   4   3   4   0   0   0)

     celldm(1)=   4.800000  celldm(2)=   0.000000  celldm(3)=   1.800000
     celldm(4)=   0.000000  celldm(5)=   0.000000  celldm(6)=   0.000000

     crystal axes: (cart. coord. in units of alat)
               a(1) = (   1.033438  -0.000000   0.000000 )  
               a(2) = (  -0.516719   0.894984   0.000000 )  
               a(3) = (   0.000000   0.000000   2.022234 )  

     reciprocal axes: (cart. coord. in units 2 pi/alat)
               b(1) = (  0.967644  0.558669 -0.000000 )  
               b(2) = (  0.000000  1.117339 -0.000000 )  
               b(3) = ( -0.000000 -0.000000  0.494503 )  


     PseudoPot. # 1 for Zn read from file:
     /home/user/QE-2021/pseudo/Zn.pbe-van.UPF
     MD5 check sum: 8a117cd81793830d6ad9bd6443d05479
     Pseudo is Ultrasoft, Zval = 12.0
     Generated by new atomic code, or converted to UPF format
     Using radial grid of  869 points,  6 beta functions with: 
                l(1) =   0
                l(2) =   0
                l(3) =   1
                l(4) =   1
                l(5) =   2
                l(6) =   2
     Q(r) pseudized with  8 coefficients,  rinner =    0.800   0.800   0.800
                                                       0.800   0.800

     atomic species   valence    mass     pseudopotential
        Zn            12.00     1.00000     Zn( 1.00)

     24 Sym. Ops., with inversion, found (12 have fractional translation)



   Cartesian axes

     site n.     atom                  positions (alat units)
         1           Zn  tau(   1) = (   0.0000000  -0.0000000  -0.0000000  )
         2           Zn  tau(   2) = (   0.5167191   0.2983279   1.0111171  )

     number of k points=    24  Methfessel-Paxton smearing, width (Ry)=  0.0300
                       cart. coord. in units 2pi/alat
        k(    1) = (   0.0806370   0.1396673   0.0618128), wk =   0.0555556
        k(    2) = (   0.0806370   0.1396673   0.1854385), wk =   0.0555556
        k(    3) = (   0.0806370   0.3258904   0.0618128), wk =   0.1111111
        k(    4) = (   0.0806370   0.3258904   0.1854385), wk =   0.1111111
        k(    5) = (   0.0806370   0.5121136   0.0618128), wk =   0.1111111
        k(    6) = (   0.0806370   0.5121136   0.1854385), wk =   0.1111111
        k(    7) = (   0.0806370  -0.4190020   0.0618128), wk =   0.1111111
        k(    8) = (   0.0806370  -0.4190020   0.1854385), wk =   0.1111111
        k(    9) = (   0.0806370  -0.2327789   0.0618128), wk =   0.1111111
        k(   10) = (   0.0806370  -0.2327789   0.1854385), wk =   0.1111111
        k(   11) = (   0.0806370  -0.0465558   0.0618128), wk =   0.0555556
        k(   12) = (   0.0806370  -0.0465558   0.1854385), wk =   0.0555556
        k(   13) = (   0.2419109   0.4190020   0.0618128), wk =   0.0555556
        k(   14) = (   0.2419109   0.4190020   0.1854385), wk =   0.0555556
        k(   15) = (   0.2419109   0.6052251   0.0618128), wk =   0.1111111
        k(   16) = (   0.2419109   0.6052251   0.1854385), wk =   0.1111111
        k(   17) = (   0.2419109  -0.3258904   0.0618128), wk =   0.1111111
        k(   18) = (   0.2419109  -0.3258904   0.1854385), wk =   0.1111111
        k(   19) = (   0.2419109  -0.1396673   0.0618128), wk =   0.0555556
        k(   20) = (   0.2419109  -0.1396673   0.1854385), wk =   0.0555556
        k(   21) = (   0.4031849   0.6983367   0.0618128), wk =   0.0555556
        k(   22) = (   0.4031849   0.6983367   0.1854385), wk =   0.0555556
        k(   23) = (   0.4031849  -0.2327789   0.0618128), wk =   0.0555556
        k(   24) = (   0.4031849  -0.2327789   0.1854385), wk =   0.0555556

     Dense  grid:    12935 G-vectors     FFT dimensions: (  27,  27,  48)

     Smooth grid:     4599 G-vectors     FFT dimensions: (  18,  18,  36)

     Estimated max dynamical RAM per process >      53.78 MB

     Initial potential from superposition of free atoms

     starting charge   23.99970, renormalised to   24.00000
     Starting wfcs are   12 randomized atomic wfcs +    4 random wfcs

     total cpu time spent up to now is      140.8 secs

     Self-consistent Calculation

     iteration #  1     ecut=    30.00 Ry     beta= 0.70
     Davidson diagonalization with overlap
     c_bands:  1 eigenvalues not converged
     c_bands:  1 eigenvalues not converged
     c_bands:  1 eigenvalues not converged
     c_bands:  1 eigenvalues not converged
     ethr =  1.00E-06,  avg # of iterations = 14.8

     total cpu time spent up to now is      142.4 secs

     total energy              =    -253.13780213 Ry
     estimated scf accuracy    <       0.06277330 Ry

     iteration #  2     ecut=    30.00 Ry     beta= 0.70
     Davidson diagonalization with overlap
     ethr =  2.62E-04,  avg # of iterations =  2.0

     total cpu time spent up to now is      143.0 secs

     total energy              =    -253.15573730 Ry
     estimated scf accuracy    <       0.05488192 Ry

     iteration #  3     ecut=    30.00 Ry     beta= 0.70
     Davidson diagonalization with overlap
     ethr =  2.29E-04,  avg # of iterations =  2.0

     total cpu time spent up to now is      143.6 secs

     total energy              =    -253.16580759 Ry
     estimated scf accuracy    <       0.00037097 Ry

     iteration #  4     ecut=    30.00 Ry     beta= 0.70
     Davidson diagonalization with overlap
     ethr =  1.55E-06,  avg # of iterations =  2.0

     total cpu time spent up to now is      144.2 secs

     total energy              =    -253.16584217 Ry
     estimated scf accuracy    <       0.00009480 Ry

     iteration #  5     ecut=    30.00 Ry     beta= 0.70
     Davidson diagonalization with overlap
     ethr =  3.95E-07,  avg # of iterations =  2.0

     total cpu time spent up to now is      144.8 secs

     total energy              =    -253.16586975 Ry
     estimated scf accuracy    <       0.00000753 Ry

     iteration #  6     ecut=    30.00 Ry     beta= 0.70
     Davidson diagonalization with overlap
     ethr =  3.14E-08,  avg # of iterations =  1.7

     total cpu time spent up to now is      145.3 secs

     total energy              =    -253.16587083 Ry
     estimated scf accuracy    <       0.00000012 Ry

     iteration #  7     ecut=    30.00 Ry     beta= 0.70
     Davidson diagonalization with overlap
     ethr =  4.80E-10,  avg # of iterations =  2.8

     total cpu time spent up to now is      146.0 secs

     total energy              =    -253.16587090 Ry
     estimated scf accuracy    <          1.0E-09 Ry

     iteration #  8     ecut=    30.00 Ry     beta= 0.70
     Davidson diagonalization with overlap
     ethr =  4.23E-12,  avg # of iterations =  5.8

     total cpu time spent up to now is      146.9 secs

     total energy              =    -253.16587090 Ry
     estimated scf accuracy    <          2.5E-09 Ry

     iteration #  9     ecut=    30.00 Ry     beta= 0.70
     Davidson diagonalization with overlap
     ethr =  4.23E-12,  avg # of iterations =  2.0

     total cpu time spent up to now is      147.5 secs

     total energy              =    -253.16587090 Ry
     estimated scf accuracy    <       0.00000001 Ry

     iteration # 10     ecut=    30.00 Ry     beta= 0.70
     Davidson diagonalization with overlap
     ethr =  4.23E-12,  avg # of iterations =  2.7

     total cpu time spent up to now is      148.2 secs

     total energy              =    -253.16587090 Ry
     estimated scf accuracy    <          4.1E-11 Ry

     iteration # 11     ecut=    30.00 Ry     beta= 0.70
     Davidson diagonalization with overlap
     ethr =  1.72E-13,  avg # of iterations =  2.0

     total cpu time spent up to now is      148.8 secs

     total energy              =    -253.16587090 Ry
     estimated scf accuracy    <          5.7E-12 Ry

     iteration # 12     ecut=    30.00 Ry     beta= 0.70
     Davidson diagonalization with overlap
     ethr =  1.00E-13,  avg # of iterations =  1.0

     total cpu time spent up to now is      149.3 secs

     End of self-consistent calculation

          k = 0.0806 0.1397 0.0618 (   586 PWs)   bands (ev):

     1.2546   2.4871   3.0121   3.1525   3.1799   3.3752   3.4122   3.4625
     3.5636   3.6517   3.8006   6.4490   9.4072  21.9267  24.1217  24.2566

          k = 0.0806 0.1397 0.1854 (   577 PWs)   bands (ev):

     1.8323   2.3907   3.0584   3.1410   3.1445   3.3157   3.3881   3.3957
     3.6908   3.7274   3.7683   4.4631  13.0500  17.3169  24.8398  24.9668

          k = 0.0806 0.3259 0.0618 (   574 PWs)   bands (ev):

     2.5805   2.7238   2.9951   3.1378   3.2189   3.4532   3.4800   3.5196
     3.7544   3.7809   4.1973   8.2735  11.5374  16.6711  20.8264  21.2485

          k = 0.0806 0.3259 0.1854 (   567 PWs)   bands (ev):

     2.6579   2.7317   2.9639   2.9784   3.3215   3.4205   3.5632   3.6598
     3.7485   3.8035   4.7262   6.1481  15.0036  17.3019  18.8904  19.3248

          k = 0.0806 0.5121 0.0618 (   571 PWs)   bands (ev):

     2.5258   2.5827   2.7925   3.1228   3.3951   3.4679   3.7053   3.7324
     3.9464   3.9880   7.6676  10.0767  12.2118  14.1874  15.7322  17.9752

          k = 0.0806 0.5121 0.1854 (   576 PWs)   bands (ev):

     2.5422   2.5511   2.8234   2.9022   3.4802   3.6262   3.6745   3.8108
     3.9389   3.9717   8.2758   9.4142  11.5844  12.6533  18.6100  20.4150

          k = 0.0806-0.4190 0.0618 (   570 PWs)   bands (ev):

     2.5812   2.6400   2.8599   3.1504   3.3632   3.4651   3.5846   3.7420
     3.7920   3.9264   5.6306   9.7488  13.0647  13.5485  17.6418  20.3528

          k = 0.0806-0.4190 0.1854 (   570 PWs)   bands (ev):

     2.5956   2.6233   2.8735   2.9317   3.4889   3.5820   3.6392   3.6818
     3.8512   3.9219   6.2818   7.7033  14.1194  15.2473  16.9742  20.4362

          k = 0.0806-0.2328 0.0618 (   581 PWs)   bands (ev):

     2.0053   2.7161   3.0363   3.0998   3.1825   3.2386   3.4821   3.5475
     3.6114   3.6418   3.7869   7.1809  10.2687  20.2639  22.4307  22.8321

          k = 0.0806-0.2328 0.1854 (   571 PWs)   bands (ev):

     2.4330   2.7146   3.0320   3.0518   3.1185   3.1971   3.5387   3.5818
     3.6783   3.7266   3.9258   5.0828  13.8549  18.0692  21.0476  22.4274

          k = 0.0806-0.0466 0.0618 (   589 PWs)   bands (ev):

     0.8407   2.3068   2.9752   3.1938   3.2299   3.2706   3.3041   3.6164
     3.6499   3.6918   3.8100   6.0450   8.9790  21.5268  26.1002  27.6869

          k = 0.0806-0.0466 0.1854 (   585 PWs)   bands (ev):

     1.4516   2.1352   3.0604   3.1945   3.2084   3.2730   3.2875   3.5001
     3.7043   3.7196   3.7698   4.1330  12.6408  16.9192  26.8137  28.1603

          k = 0.2419 0.4190 0.0618 (   573 PWs)   bands (ev):

     2.8741   2.9095   3.0012   3.1137   3.2719   3.3595   3.3861   3.5394
     3.6298   3.9195   7.0123  11.0602  14.3025  14.5765  14.6595  18.6495

          k = 0.2419 0.4190 0.1854 (   575 PWs)   bands (ev):

     2.8548   2.9203   2.9826   3.0615   3.2392   3.3442   3.4427   3.5297
     3.7718   3.9051   7.6720   9.0576  15.1854  15.3505  16.4391  16.6031

          k = 0.2419 0.6052 0.0618 (   574 PWs)   bands (ev):

     2.8791   2.9119   3.0285   3.1463   3.2347   3.3654   3.4243   3.5891
     3.6539   3.8299   9.0919  11.5114  13.2773  14.1452  15.5178  16.7373

          k = 0.2419 0.6052 0.1854 (   572 PWs)   bands (ev):

     2.8763   2.9511   2.9937   3.0731   3.2125   3.3757   3.4914   3.5227
     3.7556   3.8337   9.7478  10.9935  12.5660  13.7873  14.8693  16.2129

          k = 0.2419-0.3259 0.0618 (   572 PWs)   bands (ev):

     2.8100   2.8472   2.9514   3.1212   3.2133   3.3941   3.4619   3.4759
     3.6952   3.9064   5.3612   9.4520  12.7846  15.4233  17.7749  19.5962

          k = 0.2419-0.3259 0.1854 (   575 PWs)   bands (ev):

     2.8022   2.8459   2.9477   2.9901   3.2655   3.3572   3.4981   3.5963
     3.7768   3.9039   5.9781   7.3810  16.0164  16.1397  17.7530  18.4429

          k = 0.2419-0.1397 0.0618 (   576 PWs)   bands (ev):

     2.2493   2.6781   3.0680   3.1291   3.2003   3.4465   3.4946   3.5439
     3.6191   3.6368   3.7944   7.5326  10.6921  18.2932  22.4219  22.9092

          k = 0.2419-0.1397 0.1854 (   574 PWs)   bands (ev):

     2.5132   2.6757   3.0048   3.0258   3.3032   3.3972   3.5694   3.6044
     3.6744   3.7437   4.0511   5.4008  14.2420  18.2697  19.2556  20.4764

          k = 0.4032 0.6983 0.0618 (   572 PWs)   bands (ev):

     2.6841   2.7388   2.8668   3.1415   3.3059   3.4756   3.5877   3.6575
     3.8316   3.8641   9.2080   9.6569  13.4464  13.8932  16.6115  16.8981

          k = 0.4032 0.6983 0.1854 (   577 PWs)   bands (ev):

     2.6990   2.7167   2.9082   2.9438   3.3505   3.5224   3.6757   3.7288
     3.8137   3.8333   9.7769  10.0164  11.9210  12.0316  17.6125  18.9007

          k = 0.4032-0.2328 0.0618 (   568 PWs)   bands (ev):

     2.4840   2.5389   2.7962   3.1318   3.4149   3.4614   3.7026   3.7645
     3.9832   3.9942   6.3864  10.2338  12.0738  13.8281  16.1585  19.0563

          k = 0.4032-0.2328 0.1854 (   572 PWs)   bands (ev):

     2.4967   2.5151   2.8162   2.9013   3.5465   3.6347   3.6715   3.7849
     3.9876   3.9925   7.0344   8.4050  12.5644  13.7955  17.5638  20.6466

     the Fermi energy is    10.7703 ev

!    total energy              =    -253.16587090 Ry
     estimated scf accuracy    <          4.5E-14 Ry
     smearing contrib. (-TS)   =       0.00040746 Ry
     internal energy E=F+TS    =    -253.16627836 Ry

     The total energy is F=E-TS. E is the sum of the following terms:
     one-electron contribution =    -134.96003129 Ry
     hartree contribution      =      95.03745137 Ry
     xc contribution           =     -37.02064832 Ry
     ewald contribution        =    -176.22305012 Ry

     convergence has been achieved in  12 iterations

     Forces acting on atoms (cartesian axes, Ry/au):

     atom    1 type  1   force =     0.00000000    0.00000000   -0.00000000
     atom    2 type  1   force =    -0.00000000    0.00000000    0.00000000

     Total force =     0.000000     Total SCF correction =     0.000000


     Computing stress (Cartesian axis) and pressure

          total   stress  (Ry/bohr**3)                   (kbar)     P=        2.53
   0.00000122   0.00000000   0.00000000            0.18        0.00        0.00
  -0.00000000   0.00000122   0.00000000           -0.00        0.18        0.00
   0.00000000   0.00000000   0.00004914            0.00        0.00        7.23


     Writing output data file /tmp/Zn.save/

     init_run     :      1.51s CPU      1.57s WALL (       2 calls)
     electrons    :    131.88s CPU    133.73s WALL (      16 calls)
     update_pot   :      4.23s CPU      4.25s WALL (      14 calls)
     forces       :      3.07s CPU      3.09s WALL (      16 calls)
     stress       :      6.89s CPU      6.95s WALL (      16 calls)

     Called by init_run:
     wfcinit      :      0.28s CPU      0.28s WALL (       2 calls)
     potinit      :      0.25s CPU      0.28s WALL (       2 calls)
     hinit0       :      0.92s CPU      0.94s WALL (       2 calls)

     Called by electrons:
     c_bands      :    102.80s CPU    104.22s WALL (     254 calls)
     sum_band     :     20.45s CPU     20.75s WALL (     254 calls)
     v_of_rho     :      2.82s CPU      2.84s WALL (     268 calls)
     newd         :      5.81s CPU      5.91s WALL (     268 calls)
     mix_rho      :      0.27s CPU      0.28s WALL (     254 calls)

     Called by c_bands:
     init_us_2    :      1.69s CPU      1.73s WALL (   13008 calls)
     cegterg      :     97.34s CPU     98.67s WALL (    6096 calls)

     Called by *egterg:
     cdiaghg      :      4.51s CPU      4.57s WALL (   19418 calls)
     h_psi        :     66.88s CPU     67.83s WALL (   19850 calls)
     s_psi        :      5.92s CPU      6.01s WALL (   19850 calls)
     g_psi        :      0.45s CPU      0.46s WALL (   13706 calls)

     Called by h_psi:
     h_psi:calbec :      6.14s CPU      6.23s WALL (   19850 calls)
     vloc_psi     :     54.47s CPU     55.24s WALL (   19850 calls)
     add_vuspsi   :      5.99s CPU      6.08s WALL (   19850 calls)

     General routines
     calbec       :      9.04s CPU      9.17s WALL (   27866 calls)
     fft          :      1.09s CPU      1.10s WALL (    3596 calls)
     ffts         :      0.07s CPU      0.07s WALL (     522 calls)
     fftw         :     55.78s CPU     56.60s WALL (  621588 calls)
     interpolate  :      0.14s CPU      0.14s WALL (     268 calls)

     Parallel routines

     PWSCF        :   2m28.08s CPU   2m30.22s WALL


   This run was terminated on:  16:17:37  26Apr2021            

=------------------------------------------------------------------------------=
   JOB DONE.
=------------------------------------------------------------------------------=
