
     Program PWSCF v.6.3 starts on 14Sep2019 at 13:11:47 

     This program is part of the open-source Quantum ESPRESSO suite
     for quantum simulation of materials; please cite
         "P. Giannozzi et al., J. Phys.:Condens. Matter 21 395502 (2009);
         "P. Giannozzi et al., J. Phys.:Condens. Matter 29 465901 (2017);
          URL http://www.quantum-espresso.org", 
     in publications or presentations arising from this work. More details at
     http://www.quantum-espresso.org/quote

     Parallel version (MPI), running on     1 processors

     MPI processes distributed on     1 nodes
     Waiting for input...
     Reading input from standard input

     Current dimensions of program PWSCF are:
     Max number of different atomic species (ntypx) = 10
     Max number of k-points (npk) =  40000
     Max angular momentum in pseudopotentials (lmaxx) =  3
               file C.pbe-rrkjus.UPF: wavefunction(s)  2S 2P renormalized
               file H.pbe-rrkjus.UPF: wavefunction(s)  1S renormalized

     gamma-point specific algorithms are used

     Subspace diagonalization in iterative solution of the eigenvalue problem:
     a serial algorithm will be used


     G-vector sticks info
     --------------------
     sticks:   dense  smooth     PW     G-vecs:    dense   smooth      PW
     Sum        6869    2749    681               273079    69025    8635



     bravais-lattice index     =            6
     lattice parameter (alat)  =      20.7870  a.u.
     unit-cell volume          =    5715.8394 (a.u.)^3
     number of atoms/cell      =           12
     number of atomic types    =            2
     number of electrons       =        30.00
     number of Kohn-Sham states=           16
     kinetic-energy cutoff     =      20.0000  Ry
     charge density cutoff     =     200.0000  Ry
     convergence threshold     =      1.0E-06
     mixing beta               =       0.7000
     number of iterations used =            8  plain     mixing
     Exchange-correlation      =  SLA  PW   PBE  PBE ( 1  4  3  4 0 0)
     Assuming isolated system, Martyna-Tuckerman method


     celldm(1)=  20.786987  celldm(2)=   0.000000  celldm(3)=   0.636364
     celldm(4)=   0.000000  celldm(5)=   0.000000  celldm(6)=   0.000000

     crystal axes: (cart. coord. in units of alat)
               a(1) = (   1.000000   0.000000   0.000000 )  
               a(2) = (   0.000000   1.000000   0.000000 )  
               a(3) = (   0.000000   0.000000   0.636364 )  

     reciprocal axes: (cart. coord. in units 2 pi/alat)
               b(1) = (  1.000000  0.000000  0.000000 )  
               b(2) = (  0.000000  1.000000  0.000000 )  
               b(3) = (  0.000000  0.000000  1.571429 )  


     PseudoPot. # 1 for C  read from file:
     /home/matic/test.QE-2019/pseudo/C.pbe-rrkjus.UPF
     MD5 check sum: 00fb224312de0c5b6853bd333518df6f
     Pseudo is Ultrasoft, Zval =  4.0
     Generated by new atomic code, or converted to UPF format
     Using radial grid of  627 points,  4 beta functions with: 
                l(1) =   0
                l(2) =   0
                l(3) =   1
                l(4) =   1
     Q(r) pseudized with 0 coefficients 


     PseudoPot. # 2 for H  read from file:
     /home/matic/test.QE-2019/pseudo/H.pbe-rrkjus.UPF
     MD5 check sum: 7cc9d459525c9a0585f487a71c3c9563
     Pseudo is Ultrasoft, Zval =  1.0
     Generated by new atomic code, or converted to UPF format
     Using radial grid of 1061 points,  2 beta functions with: 
                l(1) =   0
                l(2) =   0
     Q(r) pseudized with 0 coefficients 


     atomic species   valence    mass     pseudopotential
        C              4.00     1.00000     C ( 1.00)
        H              1.00     1.00000     H ( 1.00)

      8 Sym. Ops., with inversion, found



   Cartesian axes

     site n.     atom                  positions (alat units)
         1           H   tau(   1) = (   0.5000000   0.7259672   0.3181818  )
         2           C   tau(   2) = (   0.5000000   0.6268372   0.3181818  )
         3           C   tau(   3) = (   0.6099035   0.5634659   0.3181818  )
         4           H   tau(   4) = (   0.6957265   0.6130086   0.3181818  )
         5           C   tau(   5) = (   0.6099035   0.4365341   0.3181818  )
         6           H   tau(   6) = (   0.6957265   0.3869914   0.3181818  )
         7           C   tau(   7) = (   0.5000000   0.3731628   0.3181818  )
         8           H   tau(   8) = (   0.5000000   0.2740328   0.3181818  )
         9           C   tau(   9) = (   0.3900965   0.4365341   0.3181818  )
        10           H   tau(  10) = (   0.3042735   0.3869914   0.3181818  )
        11           C   tau(  11) = (   0.3900965   0.5634659   0.3181818  )
        12           H   tau(  12) = (   0.3042735   0.6130086   0.3181818  )

     number of k points=     1
                       cart. coord. in units 2pi/alat
        k(    1) = (   0.0000000   0.0000000   0.0000000), wk =   2.0000000

     Dense  grid:   136540 G-vectors     FFT dimensions: (  96,  96,  60)

     Smooth grid:    34513 G-vectors     FFT dimensions: (  60,  60,  40)

     Estimated max dynamical RAM per process >     207.37 MB

     Initial potential from superposition of free atoms

     starting charge   29.42246, renormalised to   30.00000

     negative rho (up, down):  7.351E-05 0.000E+00
     Starting wfcs are   30 randomized atomic wfcs

     total cpu time spent up to now is        2.6 secs

     Self-consistent Calculation

     iteration #  1     ecut=    20.00 Ry     beta= 0.70
     Davidson diagonalization with overlap
     ethr =  1.00E-02,  avg # of iterations =  3.0

     negative rho (up, down):  2.411E-05 0.000E+00

     total cpu time spent up to now is        4.1 secs

     total energy              =     -74.96741014 Ry
     Harris-Foulkes estimate   =     -76.49625449 Ry
     estimated scf accuracy    <       2.21947587 Ry

     iteration #  2     ecut=    20.00 Ry     beta= 0.70
     Davidson diagonalization with overlap
     ethr =  7.40E-03,  avg # of iterations =  2.0

     negative rho (up, down):  1.396E-05 0.000E+00

     total cpu time spent up to now is        5.4 secs

     total energy              =     -75.25191455 Ry
     Harris-Foulkes estimate   =     -75.29354159 Ry
     estimated scf accuracy    <       0.09176320 Ry

     iteration #  3     ecut=    20.00 Ry     beta= 0.70
     Davidson diagonalization with overlap
     ethr =  3.06E-04,  avg # of iterations =  4.0

     negative rho (up, down):  2.014E-05 0.000E+00

     total cpu time spent up to now is        6.8 secs

     total energy              =     -75.27822808 Ry
     Harris-Foulkes estimate   =     -75.27815536 Ry
     estimated scf accuracy    <       0.00235995 Ry

     iteration #  4     ecut=    20.00 Ry     beta= 0.70
     Davidson diagonalization with overlap
     ethr =  7.87E-06,  avg # of iterations =  4.0

     negative rho (up, down):  4.514E-05 0.000E+00

     total cpu time spent up to now is        8.2 secs

     total energy              =     -75.28015661 Ry
     Harris-Foulkes estimate   =     -75.28050416 Ry
     estimated scf accuracy    <       0.00083385 Ry

     iteration #  5     ecut=    20.00 Ry     beta= 0.70
     Davidson diagonalization with overlap
     ethr =  2.78E-06,  avg # of iterations =  2.0

     negative rho (up, down):  1.915E-04 0.000E+00

     total cpu time spent up to now is        9.5 secs

     total energy              =     -75.28038148 Ry
     Harris-Foulkes estimate   =     -75.28037554 Ry
     estimated scf accuracy    <       0.00005992 Ry

     iteration #  6     ecut=    20.00 Ry     beta= 0.70
     Davidson diagonalization with overlap
     ethr =  2.00E-07,  avg # of iterations =  3.0

     negative rho (up, down):  3.047E-04 0.000E+00

     total cpu time spent up to now is       10.8 secs

     total energy              =     -75.28039496 Ry
     Harris-Foulkes estimate   =     -75.28040147 Ry
     estimated scf accuracy    <       0.00001401 Ry

     iteration #  7     ecut=    20.00 Ry     beta= 0.70
     Davidson diagonalization with overlap
     ethr =  4.67E-08,  avg # of iterations =  2.0

     negative rho (up, down):  3.638E-04 0.000E+00

     total cpu time spent up to now is       12.1 secs

     total energy              =     -75.28039710 Ry
     Harris-Foulkes estimate   =     -75.28039815 Ry
     estimated scf accuracy    <       0.00000164 Ry

     iteration #  8     ecut=    20.00 Ry     beta= 0.70
     Davidson diagonalization with overlap
     ethr =  5.48E-09,  avg # of iterations =  3.0

     negative rho (up, down):  3.555E-04 0.000E+00

     total cpu time spent up to now is       13.4 secs

     End of self-consistent calculation

          k = 0.0000 0.0000 0.0000 (  4318 PWs)   bands (ev):

   -21.1636 -18.3771 -18.3761 -14.7603 -14.7504 -12.7989 -11.0977 -10.8196
   -10.1277 -10.1202  -8.9941  -8.1325  -8.1175  -6.2656  -6.2656  -1.1401

     highest occupied, lowest unoccupied level (ev):    -6.2656   -1.1401

!    total energy              =     -75.28039754 Ry
     Harris-Foulkes estimate   =     -75.28039777 Ry
     estimated scf accuracy    <       0.00000032 Ry

     The total energy is the sum of the following terms:

     one-electron contribution =    -518.39818913 Ry
     hartree contribution      =     262.26679394 Ry
     xc contribution           =     -25.13337071 Ry
     ewald contribution        =     205.98436836 Ry

     convergence has been achieved in   8 iterations

     Writing output data file benzene.save/

     init_run     :      2.47s CPU      2.54s WALL (       1 calls)
     electrons    :     14.95s CPU     10.84s WALL (       1 calls)

     Called by init_run:
     wfcinit      :      0.18s CPU      0.15s WALL (       1 calls)
     potinit      :      0.97s CPU      1.01s WALL (       1 calls)
     hinit0       :      1.14s CPU      1.16s WALL (       1 calls)

     Called by electrons:
     c_bands      :      4.27s CPU      2.33s WALL (       8 calls)
     sum_band     :      4.59s CPU      2.48s WALL (       8 calls)
     v_of_rho     :      4.18s CPU      4.27s WALL (       9 calls)
     newd         :      1.22s CPU      1.47s WALL (       9 calls)
     mix_rho      :      0.96s CPU      0.62s WALL (       8 calls)

     Called by c_bands:
     init_us_2    :      0.07s CPU      0.05s WALL (      17 calls)
     regterg      :      4.17s CPU      2.24s WALL (       8 calls)

     Called by sum_band:
     sum_band:bec :      0.00s CPU      0.00s WALL (       8 calls)
     addusdens    :      2.97s CPU      1.58s WALL (       8 calls)

     Called by *egterg:
     h_psi        :      3.69s CPU      2.11s WALL (      32 calls)
     s_psi        :      0.12s CPU      0.04s WALL (      32 calls)
     g_psi        :      0.06s CPU      0.03s WALL (      23 calls)
     rdiaghg      :      0.07s CPU      0.04s WALL (      31 calls)

     Called by h_psi:
     h_psi:pot    :      3.67s CPU      2.10s WALL (      32 calls)
     h_psi:calbec :      0.11s CPU      0.06s WALL (      32 calls)
     vloc_psi     :      3.43s CPU      1.99s WALL (      32 calls)
     add_vuspsi   :      0.12s CPU      0.05s WALL (      32 calls)

     General routines
     calbec       :      0.15s CPU      0.07s WALL (      40 calls)
     fft          :      2.97s CPU      2.56s WALL (      98 calls)
     ffts         :      0.12s CPU      0.09s WALL (      17 calls)
     fftw         :      3.04s CPU      1.76s WALL (     506 calls)
     interpolate  :      0.27s CPU      0.27s WALL (       9 calls)

     Parallel routines

     PWSCF        :    17.47s CPU        13.46s WALL


   This run was terminated on:  13:12: 0  14Sep2019            

=------------------------------------------------------------------------------=
   JOB DONE.
=------------------------------------------------------------------------------=
