
     Program PWSCF v.6.7GPU starts on 19Apr2021 at 18:54:37 

     This program is part of the open-source Quantum ESPRESSO suite
     for quantum simulation of materials; please cite
         "P. Giannozzi et al., J. Phys.:Condens. Matter 21 395502 (2009);
         "P. Giannozzi et al., J. Phys.:Condens. Matter 29 465901 (2017);
         "P. Giannozzi et al., J. Chem. Phys. 152 154105 (2020);
          URL http://www.quantum-espresso.org", 
     in publications or presentations arising from this work. More details at
     http://www.quantum-espresso.org/quote

     Parallel version (MPI & OpenMP), running on       2 processor cores
     Number of MPI processes:                 2
     Threads/MPI process:                     1

     MPI processes distributed on     1 nodes
     K-points division:     npool     =       2
     Waiting for input...
     Reading input from standard input

     Current dimensions of program PWSCF are:
     Max number of different atomic species (ntypx) = 10
     Max number of k-points (npk) =  40000
     Max angular momentum in pseudopotentials (lmaxx) =  3

     Atomic positions and unit cell read from directory:
     ./tempdir/ni.save/


     Fixed quantization axis for GGA:     0.000000    0.000000    1.000000

     Subspace diagonalization in iterative solution of the eigenvalue problem:
     a serial algorithm will be used


     G-vector sticks info
     --------------------
     sticks:   dense  smooth     PW     G-vecs:    dense   smooth      PW
     Sum         559     271     91                 8441     2975     561

     Using Slab Decomposition



     bravais-lattice index     =            2
     lattice parameter (alat)  =       6.6480  a.u.
     unit-cell volume          =      73.4536 (a.u.)^3
     number of atoms/cell      =            1
     number of atomic types    =            1
     number of electrons       =        18.00
     number of Kohn-Sham states=           20
     kinetic-energy cutoff     =      45.0000  Ry
     charge density cutoff     =     360.0000  Ry
     Exchange-correlation=  SLA  PW   PBX  PBC
                           (   1   4   3   4   0   0   0)
     Noncollinear calculation without spin-orbit


     celldm(1)=   6.648000  celldm(2)=   0.000000  celldm(3)=   0.000000
     celldm(4)=   0.000000  celldm(5)=   0.000000  celldm(6)=   0.000000

     crystal axes: (cart. coord. in units of alat)
               a(1) = (  -0.500000   0.000000   0.500000 )  
               a(2) = (   0.000000   0.500000   0.500000 )  
               a(3) = (  -0.500000   0.500000   0.000000 )  

     reciprocal axes: (cart. coord. in units 2 pi/alat)
               b(1) = ( -1.000000 -1.000000  1.000000 )  
               b(2) = (  1.000000  1.000000  1.000000 )  
               b(3) = ( -1.000000  1.000000 -1.000000 )  


     PseudoPot. # 1 for Ni read from file:
     ./pseudo/ni_pbe_v1.4.uspp.F.UPF
     MD5 check sum: 1ee80287db30b12d2bc1f57a5b5d6409
     Pseudo is Ultrasoft + core correction, Zval = 18.0
     Generated by new atomic code, or converted to UPF format
     Using radial grid of  865 points,  6 beta functions with: 
                l(1) =   0
                l(2) =   0
                l(3) =   1
                l(4) =   1
                l(5) =   2
                l(6) =   2
     Q(r) pseudized with 10 coefficients,  rinner =    0.980   0.980   0.980
                                                       0.980   0.980

     atomic species   valence    mass     pseudopotential
        Ni            18.00    58.69300     Ni( 1.00)

     16 Sym. Ops., with inversion, found



   Cartesian axes

     site n.     atom                  positions (alat units)
         1           Ni  tau(   1) = (   0.0000000   0.0000000   0.0000000  )

     number of k points=    71  Marzari-Vanderbilt smearing, width (Ry)=  0.0200
                       cart. coord. in units 2pi/alat
        k(    1) = (   0.0000000   0.0000000   0.0000000), wk =   0.0140845
        k(    2) = (  -0.0250000   0.0250000   0.0250000), wk =   0.0140845
        k(    3) = (  -0.0500000   0.0500000   0.0500000), wk =   0.0140845
        k(    4) = (  -0.0750000   0.0750000   0.0750000), wk =   0.0140845
        k(    5) = (  -0.1000000   0.1000000   0.1000000), wk =   0.0140845
        k(    6) = (  -0.1250000   0.1250000   0.1250000), wk =   0.0140845
        k(    7) = (  -0.1500000   0.1500000   0.1500000), wk =   0.0140845
        k(    8) = (  -0.1750000   0.1750000   0.1750000), wk =   0.0140845
        k(    9) = (  -0.2000000   0.2000000   0.2000000), wk =   0.0140845
        k(   10) = (  -0.2250000   0.2250000   0.2250000), wk =   0.0140845
        k(   11) = (  -0.2500000   0.2500000   0.2500000), wk =   0.0140845
        k(   12) = (  -0.2750000   0.2750000   0.2750000), wk =   0.0140845
        k(   13) = (  -0.3000000   0.3000000   0.3000000), wk =   0.0140845
        k(   14) = (  -0.3250000   0.3250000   0.3250000), wk =   0.0140845
        k(   15) = (  -0.3500000   0.3500000   0.3500000), wk =   0.0140845
        k(   16) = (  -0.3750000   0.3750000   0.3750000), wk =   0.0140845
        k(   17) = (  -0.4000000   0.4000000   0.4000000), wk =   0.0140845
        k(   18) = (  -0.4250000   0.4250000   0.4250000), wk =   0.0140845
        k(   19) = (  -0.4500000   0.4500000   0.4500000), wk =   0.0140845
        k(   20) = (  -0.4750000   0.4750000   0.4750000), wk =   0.0140845
        k(   21) = (  -0.5000000   0.5000000   0.5000000), wk =   0.0140845
        k(   22) = (  -0.5500000   0.5000000   0.4500000), wk =   0.0140845
        k(   23) = (  -0.6000000   0.5000000   0.4000000), wk =   0.0140845
        k(   24) = (  -0.6500000   0.5000000   0.3500000), wk =   0.0140845
        k(   25) = (  -0.7000000   0.5000000   0.3000000), wk =   0.0140845
        k(   26) = (  -0.7500000   0.5000000   0.2500000), wk =   0.0140845
        k(   27) = (  -0.8000000   0.5000000   0.2000000), wk =   0.0140845
        k(   28) = (  -0.8500000   0.5000000   0.1500000), wk =   0.0140845
        k(   29) = (  -0.9000000   0.5000000   0.1000000), wk =   0.0140845
        k(   30) = (  -0.9500000   0.5000000   0.0500000), wk =   0.0140845
        k(   31) = (  -1.0000000   0.5000000   0.0000000), wk =   0.0140845
        k(   32) = (  -1.0000000   0.4500000   0.0000000), wk =   0.0140845
        k(   33) = (  -1.0000000   0.4000000   0.0000000), wk =   0.0140845
        k(   34) = (  -1.0000000   0.3500000   0.0000000), wk =   0.0140845
        k(   35) = (  -1.0000000   0.3000000   0.0000000), wk =   0.0140845
        k(   36) = (  -1.0000000   0.2500000   0.0000000), wk =   0.0140845
        k(   37) = (  -1.0000000   0.2000000   0.0000000), wk =   0.0140845
        k(   38) = (  -1.0000000   0.1500000   0.0000000), wk =   0.0140845
        k(   39) = (  -1.0000000   0.1000000   0.0000000), wk =   0.0140845
        k(   40) = (  -1.0000000   0.0500000   0.0000000), wk =   0.0140845
        k(   41) = (  -1.0000000   0.0000000   0.0000000), wk =   0.0140845
        k(   42) = (  -0.9000000   0.0000000   0.0000000), wk =   0.0140845
        k(   43) = (  -0.8000000   0.0000000   0.0000000), wk =   0.0140845
        k(   44) = (  -0.7000000   0.0000000   0.0000000), wk =   0.0140845
        k(   45) = (  -0.6000000   0.0000000   0.0000000), wk =   0.0140845
        k(   46) = (  -0.5000000   0.0000000   0.0000000), wk =   0.0140845
        k(   47) = (  -0.4000000   0.0000000   0.0000000), wk =   0.0140845
        k(   48) = (  -0.3000000   0.0000000   0.0000000), wk =   0.0140845
        k(   49) = (  -0.2000000   0.0000000   0.0000000), wk =   0.0140845
        k(   50) = (  -0.1000000   0.0000000   0.0000000), wk =   0.0140845
        k(   51) = (   0.0000000   0.0000000   0.0000000), wk =   0.0140845
        k(   52) = (  -0.0375000   0.0375000   0.0000000), wk =   0.0140845
        k(   53) = (  -0.0750000   0.0750000   0.0000000), wk =   0.0140845
        k(   54) = (  -0.1125000   0.1125000   0.0000000), wk =   0.0140845
        k(   55) = (  -0.1500000   0.1500000   0.0000000), wk =   0.0140845
        k(   56) = (  -0.1875000   0.1875000   0.0000000), wk =   0.0140845
        k(   57) = (  -0.2250000   0.2250000   0.0000000), wk =   0.0140845
        k(   58) = (  -0.2625000   0.2625000   0.0000000), wk =   0.0140845
        k(   59) = (  -0.3000000   0.3000000   0.0000000), wk =   0.0140845
        k(   60) = (  -0.3375000   0.3375000   0.0000000), wk =   0.0140845
        k(   61) = (  -0.3750000   0.3750000   0.0000000), wk =   0.0140845
        k(   62) = (  -0.4125000   0.4125000   0.0000000), wk =   0.0140845
        k(   63) = (  -0.4500000   0.4500000   0.0000000), wk =   0.0140845
        k(   64) = (  -0.4875000   0.4875000   0.0000000), wk =   0.0140845
        k(   65) = (  -0.5250000   0.5250000   0.0000000), wk =   0.0140845
        k(   66) = (  -0.5625000   0.5625000   0.0000000), wk =   0.0140845
        k(   67) = (  -0.6000000   0.6000000   0.0000000), wk =   0.0140845
        k(   68) = (  -0.6375000   0.6375000   0.0000000), wk =   0.0140845
        k(   69) = (  -0.6750000   0.6750000   0.0000000), wk =   0.0140845
        k(   70) = (  -0.7125000   0.7125000   0.0000000), wk =   0.0140845
        k(   71) = (  -0.7500000   0.7500000   0.0000000), wk =   0.0140845

     Dense  grid:     8441 G-vectors     FFT dimensions: (  30,  30,  30)

     Smooth grid:     2975 G-vectors     FFT dimensions: (  24,  24,  24)

     Estimated max dynamical RAM per process >      20.90 MB

     Estimated total dynamical RAM >      41.81 MB

     Check: negative core charge=   -0.000008
     Generating pointlists ...
     new r_m :   0.2917 (alat units)  1.9391 (a.u.) for type    1
     Message from routine read_rhog:
     some spin components not found

     The potential is recalculated from file :
     ./tempdir/ni.save/charge-density

     Starting wfcs are   26 randomized atomic wfcs

     Band Structure Calculation
     Davidson diagonalization with overlap

     ethr =  5.56E-11,  avg # of iterations = 12.5

     total cpu time spent up to now is        4.7 secs

     End of band structure calculation

          k = 0.0000 0.0000 0.0000 (   339 PWs)   bands (ev):

   -85.9014 -84.9493 -46.1578 -46.1578 -46.1578 -45.2334 -45.2334 -45.2334
     8.6950   8.7383  15.3892  15.3892  15.3892  16.1864  16.1864  16.1864
    16.5339  16.5339  17.2419  17.2419

          k =-0.0250 0.0250 0.0250 (   339 PWs)   bands (ev):

   -85.9012 -84.9491 -46.1592 -46.1580 -46.1580 -45.2348 -45.2336 -45.2336
     8.7197   8.7630  15.3826  15.3948  15.3948  16.1789  16.1923  16.1923
    16.5314  16.5314  17.2392  17.2392

          k =-0.0500 0.0500 0.0500 (   354 PWs)   bands (ev):

   -85.9006 -84.9485 -46.1632 -46.1586 -46.1586 -45.2390 -45.2342 -45.2342
     8.7936   8.8368  15.3634  15.4113  15.4113  16.1569  16.2096  16.2096
    16.5242  16.5242  17.2314  17.2314

          k =-0.0750 0.0750 0.0750 (   357 PWs)   bands (ev):

   -85.8996 -84.9474 -46.1697 -46.1595 -46.1595 -45.2458 -45.2352 -45.2352
     8.9162   8.9591  15.3327  15.4375  15.4375  16.1215  16.2368  16.2368
    16.5137  16.5137  17.2202  17.2202

          k =-0.1000 0.1000 0.1000 (   362 PWs)   bands (ev):

   -85.8983 -84.9460 -46.1787 -46.1608 -46.1608 -45.2551 -45.2365 -45.2365
     9.0864   9.1287  15.2923  15.4711  15.4711  16.0746  16.2713  16.2713
    16.5018  16.5018  17.2080  17.2080

          k =-0.1250 0.1250 0.1250 (   362 PWs)   bands (ev):

   -85.8966 -84.9443 -46.1898 -46.1624 -46.1624 -45.2667 -45.2382 -45.2382
     9.3027   9.3441  15.2450  15.5091  15.5091  16.0187  16.3092  16.3092
    16.4918  16.4918  17.1987  17.1987

          k =-0.1500 0.1500 0.1500 (   362 PWs)   bands (ev):

   -85.8946 -84.9422 -46.2027 -46.1643 -46.1643 -45.2803 -45.2401 -45.2401
     9.5630   9.6027  15.1941  15.5471  15.5471  15.9572  16.3452  16.3452
    16.4876  16.4876  17.1976  17.1976

          k =-0.1750 0.1750 0.1750 (   362 PWs)   bands (ev):

   -85.8924 -84.9399 -46.2173 -46.1664 -46.1664 -45.2954 -45.2423 -45.2423
     9.8644   9.9013  15.1441  15.5801  15.5801  15.8939  16.3730  16.3730
    16.4938  16.4938  17.2103  17.2103

          k =-0.2000 0.2000 0.2000 (   362 PWs)   bands (ev):

   -85.8900 -84.9374 -46.2330 -46.1687 -46.1687 -45.3119 -45.2446 -45.2446
    10.2031  10.2352  15.1006  15.6032  15.6032  15.8336  16.3873  16.3873
    16.5149  16.5149  17.2419  17.2419

          k =-0.2250 0.2250 0.2250 (   362 PWs)   bands (ev):

   -85.8874 -84.9348 -46.2495 -46.1711 -46.1711 -45.3291 -45.2471 -45.2471
    10.5737  10.5978  15.0707  15.6129  15.6129  15.7823  16.3853  16.3853
    16.5536  16.5536  17.2943  17.2943

          k =-0.2500 0.2500 0.2500 (   368 PWs)   bands (ev):

   -85.8848 -84.9321 -46.2665 -46.1735 -46.1735 -45.3468 -45.2496 -45.2496
    10.9688  10.9797  15.0636  15.6086  15.6086  15.7469  16.3680  16.3680
    16.6096  16.6096  17.3657  17.3657

          k =-0.2750 0.2750 0.2750 (   365 PWs)   bands (ev):

   -85.8822 -84.9294 -46.2834 -46.1760 -46.1760 -45.3644 -45.2522 -45.2522
    11.3678  11.3786  15.0921  15.5922  15.5922  15.7367  16.3388  16.3388
    16.6800  16.6800  17.4515  17.4515

          k =-0.3000 0.3000 0.3000 (   365 PWs)   bands (ev):

   -85.8797 -84.9267 -46.2998 -46.1783 -46.1783 -45.3816 -45.2547 -45.2547
    11.7441  11.7891  15.1721  15.5668  15.5668  15.7633  16.3021  16.3021
    16.7601  16.7601  17.5459  17.5459

          k =-0.3250 0.3250 0.3250 (   359 PWs)   bands (ev):

   -85.8772 -84.9242 -46.3154 -46.1806 -46.1806 -45.3979 -45.2570 -45.2570
    12.0870  12.1826  15.3220  15.5363  15.5363  15.8405  16.2619  16.2619
    16.8447  16.8447  17.6433  17.6433

          k =-0.3500 0.3500 0.3500 (   362 PWs)   bands (ev):

   -85.8750 -84.9219 -46.3298 -46.1827 -46.1827 -45.4129 -45.2592 -45.2592
    12.3751  12.5379  15.5039  15.5039  15.5570  15.9825  16.2213  16.2213
    16.9287  16.9287  17.7386  17.7386

          k =-0.3750 0.3750 0.3750 (   362 PWs)   bands (ev):

   -85.8730 -84.9199 -46.3427 -46.1846 -46.1846 -45.4263 -45.2611 -45.2611
    12.5960  12.8356  15.4723  15.4723  15.8799  16.1832  16.1832  16.1982
    17.0078  17.0078  17.8274  17.8274

          k =-0.4000 0.4000 0.4000 (   368 PWs)   bands (ev):

   -85.8713 -84.9181 -46.3536 -46.1862 -46.1862 -45.4377 -45.2628 -45.2628
    12.7512  13.0645  15.4438  15.4438  16.1495  16.1495  16.2730  16.4816
    17.0780  17.0780  17.9056  17.9056

          k =-0.4250 0.4250 0.4250 (   374 PWs)   bands (ev):

   -85.8700 -84.9167 -46.3624 -46.1875 -46.1875 -45.4469 -45.2641 -45.2641
    12.8522  13.2255  15.4201  15.4201  16.1217  16.1217  16.6976  16.8044
    17.1360  17.1360  17.9701  17.9701

          k =-0.4500 0.4500 0.4500 (   374 PWs)   bands (ev):

   -85.8690 -84.9156 -46.3688 -46.1884 -46.1884 -45.4536 -45.2651 -45.2651
    12.9130  13.3284  15.4023  15.4023  16.1011  16.1011  17.0956  17.1156
    17.1794  17.1794  18.0181  18.0181

          k =-0.4750 0.4750 0.4750 (   374 PWs)   bands (ev):

   -85.8684 -84.9150 -46.3728 -46.1890 -46.1890 -45.4577 -45.2657 -45.2657
    12.9450  13.3846  15.3913  15.3913  16.0885  16.0885  17.2063  17.2063
    17.3474  17.3898  18.0477  18.0477

          k =-0.5000 0.5000 0.5000 (   368 PWs)   bands (ev):

   -85.8681 -84.9148 -46.3741 -46.1892 -46.1892 -45.4590 -45.2659 -45.2659
    12.9549  13.4023  15.3876  15.3876  16.0842  16.0842  17.2154  17.2154
    17.4343  17.5004  18.0578  18.0578

          k =-0.5500 0.5000 0.4500 (   380 PWs)   bands (ev):

   -85.8679 -84.9145 -46.3728 -46.1919 -46.1899 -45.4577 -45.2687 -45.2667
    12.9974  13.4479  15.3570  15.4148  16.0415  16.1121  16.7706  17.1305
    17.2109  18.0122  18.0536  18.4377

          k =-0.6000 0.5000 0.4000 (   380 PWs)   bands (ev):

   -85.8671 -84.9137 -46.3690 -46.1999 -46.1921 -45.4537 -45.2771 -45.2690
    13.1214  13.5811  15.2656  15.4959  15.9106  16.1952  16.2819  16.7222
    17.1977  18.0414  18.7047  19.0801

          k =-0.6500 0.5000 0.3500 (   376 PWs)   bands (ev):

   -85.8659 -84.9124 -46.3629 -46.2123 -46.1958 -45.4473 -45.2900 -45.2728
    13.3152  13.7903  15.1139  15.6281  15.6938  15.8709  16.3299  16.3920
    17.1771  18.0230  19.4627  19.8085

          k =-0.7000 0.5000 0.3000 (   376 PWs)   bands (ev):

   -85.8644 -84.9109 -46.3547 -46.2279 -46.2009 -45.4388 -45.3063 -45.2781
    13.5606  14.0573  14.9096  15.4250  15.5466  15.8043  16.1376  16.5080
    17.1521  18.0024  20.2802  20.6021

          k =-0.7500 0.5000 0.2500 (   378 PWs)   bands (ev):

   -85.8627 -84.9091 -46.3450 -46.2452 -46.2073 -45.4286 -45.3243 -45.2848
    13.8337  14.3575  14.6787  15.1551  15.2979  15.9281  16.0090  16.7119
    17.1300  17.9887  21.1541  21.4546

          k =-0.8000 0.5000 0.2000 (   378 PWs)   bands (ev):

   -85.8610 -84.9073 -46.3341 -46.2624 -46.2148 -45.4172 -45.3423 -45.2926
    14.1085  14.4574  14.6630  14.9172  15.1032  15.7479  16.2120  16.9093
    17.1262  17.9996  22.0810  22.3608

          k =-0.8500 0.5000 0.1500 (   376 PWs)   bands (ev):

   -85.8594 -84.9058 -46.3228 -46.2780 -46.2230 -45.4054 -45.3585 -45.3012
    14.2715  14.3594  14.7260  14.9452  14.9503  15.5971  16.3675  17.0552
    17.1637  18.0563  23.0538  23.3131

          k =-0.9000 0.5000 0.1000 (   378 PWs)   bands (ev):

   -85.8582 -84.9045 -46.3123 -46.2903 -46.2312 -45.3943 -45.3714 -45.3097
    14.1337  14.5628  14.5875  14.8375  15.1764  15.4820  16.4450  17.1254
    17.2460  18.1545  24.0530  24.2909

          k =-0.9500 0.5000 0.0500 (   382 PWs)   bands (ev):

   -85.8574 -84.9037 -46.3041 -46.2982 -46.2378 -45.3858 -45.3796 -45.3166
    14.0496  14.5040  14.6969  14.7677  15.3304  15.4096  16.4649  17.1417
    17.3301  18.2478  25.0031  25.2179

          k =-1.0000 0.5000 0.0000 (   380 PWs)   bands (ev):

   -85.8572 -84.9034 -46.3009 -46.3009 -46.2404 -45.3825 -45.3825 -45.3194
    14.0213  14.4761  14.7441  14.7441  15.3848  15.3848  16.4662  17.1417
    17.3646  18.2854  25.5210  25.5210

          k =-1.0000 0.4500 0.0000 (   380 PWs)   bands (ev):

   -85.8572 -84.9034 -46.3106 -46.2912 -46.2404 -45.3925 -45.3724 -45.3193
    13.9918  14.4449  14.5265  14.9849  15.1663  15.6281  16.4932  17.1709
    17.3645  18.2854  24.7830  24.9865

          k =-1.0000 0.4000 0.0000 (   382 PWs)   bands (ev):

   -85.8572 -84.9034 -46.3200 -46.2818 -46.2403 -45.4024 -45.3625 -45.3192
    13.9099  14.3324  14.3584  14.9723  15.2481  15.8959  16.5678  17.2516
    17.3645  18.2853  24.0710  24.2768

          k =-1.0000 0.3500 0.0000 (   378 PWs)   bands (ev):

   -85.8572 -84.9034 -46.3289 -46.2728 -46.2401 -45.4117 -45.3531 -45.3191
    13.7914  14.1621  14.2333  14.8027  15.5323  16.1878  16.6746  17.3644
    17.3673  18.2852  23.3878  23.5918

          k =-1.0000 0.3000 0.0000 (   378 PWs)   bands (ev):

   -85.8572 -84.9034 -46.3372 -46.2646 -46.2400 -45.4203 -45.3445 -45.3188
    13.6547  14.0152  14.0890  14.6569  15.8350  16.5025  16.7961  17.3642
    17.4993  18.2850  22.7371  22.9340

          k =-1.0000 0.2500 0.0000 (   374 PWs)   bands (ev):

   -85.8572 -84.9034 -46.3446 -46.2572 -46.2397 -45.4280 -45.3368 -45.3186
    13.5158  13.8915  13.9425  14.5346  16.1518  16.8377  16.9178  17.3640
    17.6314  18.2848  22.1243  22.3067

          k =-1.0000 0.2000 0.0000 (   370 PWs)   bands (ev):

   -85.8572 -84.9034 -46.3508 -46.2509 -46.2395 -45.4346 -45.3302 -45.3184
    13.3876  13.7909  13.8073  14.4352  16.4751  17.0283  17.1888  17.3639
    17.7516  18.2846  21.5577  21.7154

          k =-1.0000 0.1500 0.0000 (   372 PWs)   bands (ev):

   -85.8572 -84.9035 -46.3559 -46.2458 -46.2393 -45.4399 -45.3249 -45.3182
    13.2793  13.6932  13.7129  14.3584  16.7911  17.1202  17.3637  17.5464
    17.8515  18.2844  21.0517  21.1702

          k =-1.0000 0.1000 0.0000 (   376 PWs)   bands (ev):

   -85.8572 -84.9035 -46.3596 -46.2421 -46.2392 -45.4437 -45.3210 -45.3180
    13.1976  13.6071  13.6575  14.3038  17.0750  17.1887  17.3636  17.8893
    17.9260  18.2843  20.6318  20.6930

          k =-1.0000 0.0500 0.0000 (   380 PWs)   bands (ev):

   -85.8572 -84.9035 -46.3619 -46.2398 -46.2391 -45.4461 -45.3187 -45.3179
    13.1469  13.5537  13.6243  14.2712  17.2308  17.2841  17.3635  17.9718
    18.1678  18.2842  20.3336  20.3409

          k =-1.0000 0.0000 0.0000 (   388 PWs)   bands (ev):

   -85.8572 -84.9035 -46.3626 -46.2390 -46.2390 -45.4469 -45.3179 -45.3179
    13.1297  13.5356  13.6131  14.2603  17.2450  17.3635  17.3635  17.9871
    18.2842  18.2842  20.1902  20.2342

          k =-0.9000 0.0000 0.0000 (   379 PWs)   bands (ev):

   -85.8583 -84.9046 -46.3578 -46.2371 -46.2371 -45.4418 -45.3158 -45.3158
    13.1383  13.5305  13.6532  14.3033  17.2270  17.2981  17.2981  17.9683
    18.2127  18.2127  19.5651  19.5801

          k =-0.8000 0.0000 0.0000 (   383 PWs)   bands (ev):

   -85.8614 -84.9078 -46.3437 -46.2313 -46.2313 -45.4272 -45.3098 -45.3098
    13.1287  13.4696  13.7704  14.4292  17.1153  17.1153  17.1750  17.9137
    18.0139  18.0139  18.2133  18.3441

          k =-0.7000 0.0000 0.0000 (   375 PWs)   bands (ev):

   -85.8663 -84.9129 -46.3216 -46.2223 -46.2223 -45.4042 -45.3005 -45.3005
    12.9759  13.2043  13.9555  14.6284  16.8494  16.8494  16.9401  17.0946
    17.2322  17.7270  17.7270  17.8293

          k =-0.6000 0.0000 0.0000 (   371 PWs)   bands (ev):

   -85.8725 -84.9193 -46.2935 -46.2110 -46.2110 -45.3749 -45.2887 -45.2887
    12.4803  12.5651  14.1934  14.8851  16.1596  16.5421  16.5421  16.6331
    16.9940  17.3982  17.3982  17.7238

          k =-0.5000 0.0000 0.0000 (   375 PWs)   bands (ev):

   -85.8793 -84.9264 -46.2621 -46.1985 -46.1985 -45.3422 -45.2756 -45.2756
    11.6396  11.6399  14.4637  15.1774  15.9321  16.2316  16.2316  16.5215
    16.8836  17.0687  17.0687  17.6080

          k =-0.4000 0.0000 0.0000 (   367 PWs)   bands (ev):

   -85.8861 -84.9334 -46.2303 -46.1859 -46.1859 -45.3090 -45.2626 -45.2626
    10.6792  10.7089  14.7410  15.4785  15.9476  15.9476  16.0110  16.6566
    16.7695  16.7695  16.7742  17.4935

          k =-0.3000 0.0000 0.0000 (   355 PWs)   bands (ev):

   -85.8923 -84.9398 -46.2013 -46.1746 -46.1746 -45.2787 -45.2508 -45.2508
     9.8455   9.8846  14.9978  15.7107  15.7107  15.7582  16.1909  16.5213
    16.5213  16.6767  16.8669  17.3914

          k =-0.2000 0.0000 0.0000 (   355 PWs)   bands (ev):

   -85.8972 -84.9449 -46.1780 -46.1656 -46.1656 -45.2545 -45.2415 -45.2415
     9.2157   9.2578  15.2060  15.5342  15.5342  15.9857  16.3371  16.3371
    16.3678  16.5998  17.0623  17.3109

          k =-0.1000 0.0000 0.0000 (   351 PWs)   bands (ev):

   -85.9004 -84.9482 -46.1630 -46.1598 -46.1598 -45.2388 -45.2354 -45.2354
     8.8264   8.8695  15.3419  15.4257  15.4257  16.1345  16.2243  16.2243
    16.4904  16.5507  17.1952  17.2595

          k = 0.0000 0.0000 0.0000 (   339 PWs)   bands (ev):

   -85.9014 -84.9493 -46.1578 -46.1578 -46.1578 -45.2334 -45.2334 -45.2334
     8.6950   8.7383  15.3892  15.3892  15.3892  16.1864  16.1864  16.1864
    16.5339  16.5339  17.2419  17.2419

          k =-0.0375 0.0375 0.0000 (   341 PWs)   bands (ev):

   -85.9011 -84.9490 -46.1597 -46.1584 -46.1580 -45.2353 -45.2340 -45.2335
     8.7320   8.7753  15.3785  15.3968  15.3993  16.1743  16.1944  16.1969
    16.5259  16.5344  17.2333  17.2424

          k =-0.0750 0.0750 0.0000 (   353 PWs)   bands (ev):

   -85.9002 -84.9480 -46.1652 -46.1601 -46.1584 -45.2411 -45.2357 -45.2340
     8.8428   8.8858  15.3471  15.4194  15.4287  16.1389  16.2185  16.2271
    16.5022  16.5370  17.2077  17.2450

          k =-0.1125 0.1125 0.0000 (   359 PWs)   bands (ev):

   -85.8987 -84.9465 -46.1742 -46.1629 -46.1592 -45.2504 -45.2386 -45.2348
     9.0259   9.0685  15.2971  15.4568  15.4734  16.0825  16.2581  16.2722
    16.4648  16.5444  17.1674  17.2535

          k =-0.1500 0.1500 0.0000 (   361 PWs)   bands (ev):

   -85.8967 -84.9444 -46.1860 -46.1668 -46.1604 -45.2628 -45.2427 -45.2360
     9.2793   9.3210  15.2317  15.5082  15.5265  16.0084  16.3127  16.3233
    16.4162  16.5624  17.1149  17.2746

          k =-0.1875 0.1875 0.0000 (   363 PWs)   bands (ev):

   -85.8943 -84.9419 -46.2002 -46.1718 -46.1618 -45.2776 -45.2479 -45.2375
     9.5997   9.6397  15.1550  15.5728  15.5774  15.9214  16.3598  16.3674
    16.3813  16.5993  17.0539  17.3189

          k =-0.2250 0.2250 0.0000 (   367 PWs)   bands (ev):

   -85.8915 -84.9390 -46.2161 -46.1779 -46.1637 -45.2942 -45.2543 -45.2394
     9.9828  10.0199  15.0718  15.6132  15.6495  15.8265  16.2994  16.3900
    16.4627  16.6665  16.9886  17.3985

          k =-0.2625 0.2625 0.0000 (   367 PWs)   bands (ev):

   -85.8884 -84.9357 -46.2329 -46.1850 -46.1659 -45.3117 -45.2617 -45.2417
    10.4228  10.4548  14.9873  15.6226  15.7295  15.7371  16.2391  16.3805
    16.5557  16.7742  16.9234  17.5219

          k =-0.3000 0.3000 0.0000 (   371 PWs)   bands (ev):

   -85.8851 -84.9323 -46.2497 -46.1931 -46.1685 -45.3293 -45.2701 -45.2445
    10.9120  10.9356  14.9068  15.5998  15.6361  15.8340  16.1831  16.3356
    16.6586  16.8626  16.9284  17.6903

          k =-0.3375 0.3375 0.0000 (   371 PWs)   bands (ev):

   -85.8817 -84.9288 -46.2659 -46.2022 -46.1716 -45.3462 -45.2795 -45.2476
    11.4402  11.4498  14.8355  15.5455  15.5519  15.9386  16.1353  16.2583
    16.7698  16.8105  17.1315  17.9018

          k =-0.3750 0.3750 0.0000 (   375 PWs)   bands (ev):

   -85.8783 -84.9253 -46.2807 -46.2121 -46.1750 -45.3617 -45.2898 -45.2512
    11.9810  11.9935  14.7784  15.4632  15.4821  16.0493  16.0992  16.1528
    16.7708  16.8873  17.3869  18.1555

          k =-0.4125 0.4125 0.0000 (   371 PWs)   bands (ev):

   -85.8750 -84.9219 -46.2935 -46.2227 -46.1789 -45.3750 -45.3009 -45.2552
    12.5069  12.5539  14.7401  15.3575  15.4317  16.0234  16.0781  16.1641
    16.7470  17.0094  17.7031  18.4556

          k =-0.4500 0.4500 0.0000 (   367 PWs)   bands (ev):

   -85.8719 -84.9187 -46.3037 -46.2339 -46.1831 -45.3856 -45.3127 -45.2596
    12.9999  13.0978  14.7246  15.2325  15.4050  15.8734  16.0743  16.2815
    16.7415  17.1341  18.0951  18.8134

          k =-0.4875 0.4875 0.0000 (   373 PWs)   bands (ev):

   -85.8691 -84.9158 -46.3111 -46.2457 -46.1877 -45.3932 -45.3249 -45.2643
    13.4297  13.5970  14.7353  15.0919  15.4055  15.7060  16.0894  16.3994
    16.7561  17.2595  18.5823  19.2459

          k =-0.5250 0.5250 0.0000 (   377 PWs)   bands (ev):

   -85.8665 -84.9131 -46.3153 -46.2578 -46.1925 -45.3976 -45.3375 -45.2693
    13.7698  14.0229  14.7750  14.9394  15.4364  15.5242  16.1245  16.5161
    16.7921  17.3837  19.1833  19.7744

          k =-0.5625 0.5625 0.0000 (   375 PWs)   bands (ev):

   -85.8643 -84.9108 -46.3163 -46.2701 -46.1975 -45.3987 -45.3504 -45.2746
    14.0051  14.3528  14.7792  14.8463  15.3313  15.5004  16.1797  16.6301
    16.8493  17.5048  19.9072  20.4164

          k =-0.6000 0.6000 0.0000 (   385 PWs)   bands (ev):

   -85.8624 -84.9089 -46.3144 -46.2824 -46.2027 -45.3966 -45.3632 -45.2799
    14.1338  14.5771  14.6168  14.9505  15.1305  15.5990  16.2540  16.7396
    16.9272  17.6213  20.7516  21.1799

          k =-0.6375 0.6375 0.0000 (   383 PWs)   bands (ev):

   -85.8609 -84.9073 -46.3097 -46.2945 -46.2079 -45.3917 -45.3757 -45.2853
    14.1626  14.4612  14.6996  14.9267  15.0890  15.7340  16.3458  16.8433
    17.0238  17.7316  21.7057  22.0617

          k =-0.6750 0.6750 0.0000 (   383 PWs)   bands (ev):

   -85.8597 -84.9060 -46.3061 -46.3028 -46.2130 -45.3879 -45.3845 -45.2907
    14.1010  14.3248  14.6934  14.7665  15.2619  15.9060  16.4524  16.9400
    17.1366  17.8343  22.7544  23.0496

          k =-0.7125 0.7125 0.0000 (   377 PWs)   bands (ev):

   -85.8588 -84.9051 -46.3172 -46.2941 -46.2179 -45.3994 -45.3754 -45.2958
    13.9739  14.2061  14.5024  14.7310  15.4687  16.1151  16.5700  17.0285
    17.2615  17.9284  23.8810  24.1271

          k =-0.7500 0.7500 0.0000 (   377 PWs)   bands (ev):

   -85.8581 -84.9044 -46.3274 -46.2843 -46.2226 -45.4101 -45.3652 -45.3007
    13.8193  14.0903  14.3041  14.6685  15.7080  16.3607  16.6941  17.1079
    17.3938  18.0128  23.5156  23.7399

     Writing output data file ./tempdir/ni.save/

     init_run     :      0.24s CPU      0.24s WALL (       1 calls)
     electrons    :      4.29s CPU      4.31s WALL (       1 calls)

     Called by init_run:
     wfcinit      :      0.00s CPU      0.00s WALL (       1 calls)
     potinit      :      0.03s CPU      0.03s WALL (       1 calls)
     hinit0       :      0.19s CPU      0.19s WALL (       1 calls)

     Called by electrons:
     c_bands      :      4.29s CPU      4.31s WALL (       1 calls)
     v_of_rho     :      0.02s CPU      0.02s WALL (       1 calls)
     newd         :      0.02s CPU      0.02s WALL (       1 calls)

     Called by c_bands:
     init_us_2    :      0.00s CPU      0.00s WALL (      36 calls)
     cegterg      :      3.74s CPU      3.76s WALL (      37 calls)

     Called by *egterg:
     cdiaghg      :      0.19s CPU      0.19s WALL (     504 calls)
     h_psi        :      3.57s CPU      3.58s WALL (     541 calls)
     s_psi        :      0.03s CPU      0.03s WALL (     541 calls)
     g_psi        :      0.02s CPU      0.02s WALL (     468 calls)

     Called by h_psi:
     h_psi:calbec :      0.03s CPU      0.03s WALL (     541 calls)
     vloc_psi     :      3.50s CPU      3.51s WALL (     541 calls)
     add_vuspsi   :      0.03s CPU      0.03s WALL (     541 calls)

     General routines
     calbec       :      0.03s CPU      0.03s WALL (     541 calls)
     fft          :      0.01s CPU      0.01s WALL (      31 calls)
     ffts         :      0.00s CPU      0.00s WALL (       4 calls)
     fftw         :      2.83s CPU      2.84s WALL (   34996 calls)
     interpolate  :      0.00s CPU      0.00s WALL (       4 calls)
     davcio       :      0.00s CPU      0.01s WALL (      72 calls)

     Parallel routines

     PWSCF        :      4.73s CPU      4.76s WALL


   This run was terminated on:  18:54:42  19Apr2021            

=------------------------------------------------------------------------------=
   JOB DONE.
=------------------------------------------------------------------------------=
