
     Program PROJWFC v.6.7GPU starts on 18Apr2021 at 23:12:39 

     This program is part of the open-source Quantum ESPRESSO suite
     for quantum simulation of materials; please cite
         "P. Giannozzi et al., J. Phys.:Condens. Matter 21 395502 (2009);
         "P. Giannozzi et al., J. Phys.:Condens. Matter 29 465901 (2017);
         "P. Giannozzi et al., J. Chem. Phys. 152 154105 (2020);
          URL http://www.quantum-espresso.org", 
     in publications or presentations arising from this work. More details at
     http://www.quantum-espresso.org/quote

     Parallel version (MPI & OpenMP), running on       2 processor cores
     Number of MPI processes:                 1
     Threads/MPI process:                     2

     MPI processes distributed on     1 nodes

     Reading xml data from directory:

     ./tempdir/fe.save/

     IMPORTANT: XC functional enforced from input :
     Exchange-correlation= PZ
                           (   1   1   0   0   0   0   0)
     Any further DFT definition will be discarded
     Please, verify this is what you really want


     G-vector sticks info
     --------------------
     sticks:   dense  smooth     PW     G-vecs:    dense   smooth      PW
     Sum        1279     415    137                29197     5473    1055

     Using Slab Decomposition


     Check: negative core charge=   -0.000011

     negative rho (up, down):  0.000E+00 2.291E-05

     Optimized tetrahedron method (read from file) 
     [opt_tetra]  Optimized tetrahedron method is used.

     Calling projwave .... 

     Subspace diagonalization in iterative solution of the eigenvalue problem:
     a serial algorithm will be used


  Problem Sizes 
  natomwfc =           13
  nbnd     =           12
  nkstot   =          500
  npwx     =          715
  nkb      =           18


     Atomic states used for projection
     (read from pseudopotential files):

     state #   1: atom   1 (Fe ), wfc  1 (l=0 m= 1)
     state #   2: atom   1 (Fe ), wfc  2 (l=0 m= 1)
     state #   3: atom   1 (Fe ), wfc  3 (l=1 m= 1)
     state #   4: atom   1 (Fe ), wfc  3 (l=1 m= 2)
     state #   5: atom   1 (Fe ), wfc  3 (l=1 m= 3)
     state #   6: atom   1 (Fe ), wfc  4 (l=1 m= 1)
     state #   7: atom   1 (Fe ), wfc  4 (l=1 m= 2)
     state #   8: atom   1 (Fe ), wfc  4 (l=1 m= 3)
     state #   9: atom   1 (Fe ), wfc  5 (l=2 m= 1)
     state #  10: atom   1 (Fe ), wfc  5 (l=2 m= 2)
     state #  11: atom   1 (Fe ), wfc  5 (l=2 m= 3)
     state #  12: atom   1 (Fe ), wfc  5 (l=2 m= 4)
     state #  13: atom   1 (Fe ), wfc  5 (l=2 m= 5)

 k =   0.0000000000  0.0000000000  0.0500000000
==== e(   1) =   -67.39683 eV ==== 
     psi = 0.869*[#   1]+0.087*[#   2]+0.015*[#   6]+0.015*[#   7]+0.015*[#   8]
          
    |psi|^2 = 1.000
==== e(   2) =   -33.49076 eV ==== 
     psi = 0.004*[#   2]
    |psi|^2 = 0.004
==== e(   3) =   -33.48822 eV ==== 
     psi = 0.653*[#   3]+0.653*[#   4]+0.653*[#   5]+0.013*[#   6]+0.013*[#   7]
          +0.013*[#   8]
    |psi|^2 = 1.996
==== e(   4) =   -33.48822 eV ==== 
     psi = 0.326*[#   3]+0.326*[#   4]+0.326*[#   5]+0.007*[#   6]+0.007*[#   7]
          +0.007*[#   8]
    |psi|^2 = 1.000
==== e(   5) =    10.89972 eV ==== 
     psi = 0.833*[#   2]+0.115*[#   1]+0.016*[#   6]+0.016*[#   7]+0.016*[#   8]
          
    |psi|^2 = 0.998
==== e(   6) =    17.52255 eV ==== 
     psi = 0.333*[#  10]+0.333*[#  11]+0.333*[#  13]
    |psi|^2 = 0.999
==== e(   7) =    17.52255 eV ==== 
     psi = 0.333*[#  10]+0.333*[#  11]+0.333*[#  13]
    |psi|^2 = 0.999
==== e(   8) =    17.53994 eV ==== 
     psi = 0.333*[#  10]+0.333*[#  11]+0.333*[#  13]
    |psi|^2 = 0.999
==== e(   9) =    19.04910 eV ==== 
     psi = 0.500*[#   9]+0.500*[#  12]
    |psi|^2 = 1.000
==== e(  10) =    19.08861 eV ==== 
     psi = 0.500*[#   9]+0.500*[#  12]
    |psi|^2 = 1.000
==== e(  11) =    45.28250 eV ==== 

    |psi|^2 = 0.000
==== e(  12) =    45.61666 eV ==== 

    |psi|^2 = 0.000

 k =   0.0000000000 -0.0500000000  0.1000000000
==== e(   1) =   -67.39106 eV ==== 
     psi = 0.819*[#   1]+0.049*[#   6]+0.049*[#   7]+0.049*[#   8]+0.034*[#   2]
          
    |psi|^2 = 1.000
==== e(   2) =   -33.51842 eV ==== 
     psi = 0.122*[#   3]+0.122*[#   4]+0.122*[#   5]+0.013*[#   2]+0.001*[#   6]
          +0.001*[#   7]+0.001*[#   8]
    |psi|^2 = 0.384
==== e(   3) =   -33.49749 eV ==== 
     psi = 0.529*[#   3]+0.529*[#   4]+0.529*[#   5]+0.009*[#   6]+0.009*[#   7]
          +0.009*[#   8]
    |psi|^2 = 1.616
==== e(   4) =   -33.48899 eV ==== 
     psi = 0.203*[#   3]+0.203*[#   4]+0.203*[#   5]+0.005*[#   6]+0.005*[#   7]
          +0.005*[#   8]
    |psi|^2 = 0.627
==== e(   5) =    11.12145 eV ==== 
     psi = 0.683*[#   2]+0.123*[#   1]+0.062*[#   6]+0.062*[#   7]+0.062*[#   8]
          +0.001*[#   3]+0.001*[#   4]+0.001*[#   5]
    |psi|^2 = 0.998
==== e(   6) =    17.46153 eV ==== 
     psi = 0.333*[#  10]+0.333*[#  11]+0.333*[#  13]
    |psi|^2 = 0.999
==== e(   7) =    17.51642 eV ==== 
     psi = 0.332*[#  10]+0.332*[#  11]+0.332*[#  13]+0.001*[#   9]+0.001*[#  12]
          
    |psi|^2 = 0.999
==== e(   8) =    17.66352 eV ==== 
     psi = 0.333*[#  10]+0.333*[#  11]+0.333*[#  13]
    |psi|^2 = 0.999
==== e(   9) =    18.96927 eV ==== 
     psi = 0.498*[#   9]+0.498*[#  12]
    |psi|^2 = 0.999
==== e(  10) =    19.10638 eV ==== 
     psi = 0.499*[#   9]+0.499*[#  12]
    |psi|^2 = 0.999
==== e(  11) =    44.16761 eV ==== 

    |psi|^2 = 0.004
==== e(  12) =    45.33918 eV ==== 
     psi = 0.001*[#   2]
    |psi|^2 = 0.002

 k =   0.0000000000 -0.1000000000  0.1500000000
==== e(   1) =   -67.38008 eV ==== 
     psi = 0.777*[#   1]+0.073*[#   6]+0.073*[#   7]+0.073*[#   8]+0.004*[#   2]
          
    |psi|^2 = 1.000
==== e(   2) =   -33.57235 eV ==== 
     psi = 0.140*[#   3]+0.140*[#   4]+0.140*[#   5]+0.022*[#   2]
    |psi|^2 = 0.445
==== e(   3) =   -33.51514 eV ==== 
     psi = 0.509*[#   3]+0.509*[#   4]+0.509*[#   5]+0.009*[#   6]+0.009*[#   7]
          +0.009*[#   8]
    |psi|^2 = 1.555
==== e(   4) =   -33.48895 eV ==== 
     psi = 0.184*[#   3]+0.184*[#   4]+0.184*[#   5]+0.006*[#   6]+0.006*[#   7]
          +0.006*[#   8]
    |psi|^2 = 0.571
==== e(   5) =    11.55253 eV ==== 
     psi = 0.523*[#   2]+0.130*[#   1]+0.111*[#   6]+0.111*[#   7]+0.111*[#   8]
          +0.003*[#   3]+0.003*[#   4]+0.003*[#   5]
    |psi|^2 = 0.997
==== e(   6) =    17.33714 eV ==== 
     psi = 0.333*[#  10]+0.333*[#  11]+0.333*[#  13]
    |psi|^2 = 0.999
==== e(   7) =    17.48914 eV ==== 
     psi = 0.323*[#  10]+0.323*[#  11]+0.323*[#  13]+0.013*[#   9]+0.013*[#  12]
          
    |psi|^2 = 0.997
==== e(   8) =    17.91349 eV ==== 
     psi = 0.333*[#  10]+0.333*[#  11]+0.333*[#  13]
    |psi|^2 = 0.999
==== e(   9) =    18.86503 eV ==== 
     psi = 0.487*[#   9]+0.487*[#  12]+0.008*[#  10]+0.008*[#  11]+0.008*[#  13]
          
    |psi|^2 = 0.999
==== e(  10) =    19.12417 eV ==== 
     psi = 0.499*[#   9]+0.499*[#  12]
    |psi|^2 = 0.999
==== e(  11) =    42.37797 eV ==== 
     psi = 0.021*[#   2]+0.004*[#   6]+0.004*[#   7]+0.004*[#   8]+0.004*[#   1]
          
    |psi|^2 = 0.041
==== e(  12) =    44.62546 eV ==== 
     psi = 0.010*[#   2]+0.002*[#   1]
    |psi|^2 = 0.014

 k =   0.0000000000 -0.1500000000  0.2000000000
==== e(   1) =   -67.36498 eV ==== 
     psi = 0.763*[#   1]+0.079*[#   6]+0.079*[#   7]+0.079*[#   8]
    |psi|^2 = 1.000
==== e(   2) =   -33.64681 eV ==== 
     psi = 0.147*[#   3]+0.147*[#   4]+0.147*[#   5]+0.026*[#   2]
    |psi|^2 = 0.468
==== e(   3) =   -33.53971 eV ==== 
     psi = 0.499*[#   3]+0.499*[#   4]+0.499*[#   5]+0.011*[#   6]+0.011*[#   7]
          +0.011*[#   8]
    |psi|^2 = 1.532
==== e(   4) =   -33.48905 eV ==== 
     psi = 0.177*[#   3]+0.177*[#   4]+0.177*[#   5]+0.006*[#   6]+0.006*[#   7]
          +0.006*[#   8]
    |psi|^2 = 0.549
==== e(   5) =    12.16269 eV ==== 
     psi = 0.404*[#   2]+0.144*[#   6]+0.144*[#   7]+0.144*[#   8]+0.127*[#   1]
          +0.005*[#   3]+0.005*[#   4]+0.005*[#   5]+0.004*[#  10]+0.004*[#  11]
          +0.004*[#  13]+0.002*[#   9]+0.002*[#  12]
    |psi|^2 = 0.997
==== e(   6) =    17.16894 eV ==== 
     psi = 0.333*[#  10]+0.333*[#  11]+0.333*[#  13]
    |psi|^2 = 0.999
==== e(   7) =    17.42590 eV ==== 
     psi = 0.297*[#  10]+0.297*[#  11]+0.297*[#  13]+0.045*[#   9]+0.045*[#  12]
          +0.002*[#   1]+0.002*[#   6]+0.002*[#   7]+0.002*[#   8]+0.001*[#   2]
          
    |psi|^2 = 0.990
==== e(   8) =    18.26925 eV ==== 
     psi = 0.333*[#  10]+0.333*[#  11]+0.333*[#  13]
    |psi|^2 = 1.000
==== e(   9) =    18.78976 eV ==== 
     psi = 0.454*[#   9]+0.454*[#  12]+0.030*[#  10]+0.030*[#  11]+0.030*[#  13]
          
    |psi|^2 = 0.999
==== e(  10) =    19.14840 eV ==== 
     psi = 0.497*[#   9]+0.497*[#  12]+0.001*[#  10]+0.001*[#  11]+0.001*[#  13]
          
    |psi|^2 = 0.999
==== e(  11) =    40.21443 eV ==== 
     psi = 0.121*[#   2]+0.021*[#   1]+0.014*[#   6]+0.014*[#   7]+0.014*[#   8]
          
    |psi|^2 = 0.190
==== e(  12) =    43.60231 eV ==== 
     psi = 0.018*[#   2]+0.006*[#   6]+0.006*[#   7]+0.006*[#   8]+0.003*[#   1]
          
    |psi|^2 = 0.039

 k =   0.0000000000 -0.2000000000  0.2500000000
==== e(   1) =   -67.34716 eV ==== 
     psi = 0.775*[#   1]+0.073*[#   6]+0.073*[#   7]+0.073*[#   8]+0.004*[#   2]
          
    |psi|^2 = 1.000
==== e(   2) =   -33.73309 eV ==== 
     psi = 0.151*[#   3]+0.151*[#   4]+0.151*[#   5]+0.024*[#   2]
    |psi|^2 = 0.481
==== e(   3) =   -33.56792 eV ==== 
     psi = 0.492*[#   3]+0.492*[#   4]+0.492*[#   5]+0.014*[#   6]+0.014*[#   7]
          +0.014*[#   8]
    |psi|^2 = 1.519
==== e(   4) =   -33.48899 eV ==== 
     psi = 0.171*[#   3]+0.171*[#   4]+0.171*[#   5]+0.007*[#   6]+0.007*[#   7]
          +0.007*[#   8]
    |psi|^2 = 0.536
==== e(   5) =    12.89271 eV ==== 
     psi = 0.324*[#   2]+0.160*[#   6]+0.160*[#   7]+0.160*[#   8]+0.113*[#   1]
          +0.014*[#  10]+0.014*[#  11]+0.014*[#  13]+0.008*[#   3]+0.008*[#   4]
          +0.008*[#   5]+0.008*[#   9]+0.008*[#  12]
    |psi|^2 = 0.996
==== e(   6) =    16.97576 eV ==== 
     psi = 0.333*[#  10]+0.333*[#  11]+0.333*[#  13]
    |psi|^2 = 0.998
==== e(   7) =    17.35579 eV ==== 
     psi = 0.250*[#  10]+0.250*[#  11]+0.250*[#  13]+0.092*[#   9]+0.092*[#  12]
          +0.008*[#   6]+0.008*[#   7]+0.008*[#   8]+0.008*[#   1]+0.003*[#   2]
          
    |psi|^2 = 0.969
==== e(   8) =    18.70650 eV ==== 
     psi = 0.332*[#  10]+0.332*[#  11]+0.332*[#  13]+0.001*[#   6]+0.001*[#   7]
          +0.001*[#   8]
    |psi|^2 = 1.000
==== e(   9) =    18.78469 eV ==== 
     psi = 0.402*[#   9]+0.402*[#  12]+0.065*[#  10]+0.065*[#  11]+0.065*[#  13]
          
    |psi|^2 = 0.999
==== e(  10) =    19.18079 eV ==== 
     psi = 0.496*[#   9]+0.496*[#  12]+0.002*[#  10]+0.002*[#  11]+0.002*[#  13]
          
    |psi|^2 = 0.998
==== e(  11) =    37.88643 eV ==== 
     psi = 0.322*[#   2]+0.050*[#   1]+0.027*[#   6]+0.027*[#   7]+0.027*[#   8]
          +0.002*[#  10]+0.002*[#  11]+0.002*[#  13]+0.001*[#   9]+0.001*[#  12]
          
    |psi|^2 = 0.466
==== e(  12) =    42.48128 eV ==== 
     psi = 0.017*[#   6]+0.017*[#   7]+0.017*[#   8]+0.016*[#   2]+0.003*[#   1]
          
    |psi|^2 = 0.072

 k =   0.0000000000 -0.2500000000  0.3000000000
==== e(   1) =   -67.32839 eV ==== 
     psi = 0.810*[#   1]+0.060*[#   6]+0.060*[#   7]+0.060*[#   8]+0.008*[#   2]
          
    |psi|^2 = 1.000
==== e(   2) =   -33.82283 eV ==== 
     psi = 0.153*[#   3]+0.153*[#   4]+0.153*[#   5]+0.020*[#   2]+0.002*[#   6]
          +0.002*[#   7]+0.002*[#   8]
    |psi|^2 = 0.487
==== e(   3) =   -33.59754 eV ==== 
     psi = 0.487*[#   3]+0.487*[#   4]+0.487*[#   5]+0.017*[#   6]+0.017*[#   7]
          +0.017*[#   8]
    |psi|^2 = 1.513
==== e(   4) =   -33.48906 eV ==== 
     psi = 0.168*[#   3]+0.168*[#   4]+0.168*[#   5]+0.008*[#   6]+0.008*[#   7]
          +0.008*[#   8]
    |psi|^2 = 0.528
==== e(   5) =    13.62685 eV ==== 
     psi = 0.269*[#   2]+0.150*[#   6]+0.150*[#   7]+0.150*[#   8]+0.083*[#   1]
          +0.040*[#  10]+0.040*[#  11]+0.040*[#  13]+0.024*[#   9]+0.024*[#  12]
          +0.009*[#   3]+0.009*[#   4]+0.009*[#   5]
    |psi|^2 = 0.996
==== e(   6) =    16.77768 eV ==== 
     psi = 0.333*[#  10]+0.333*[#  11]+0.333*[#  13]
    |psi|^2 = 0.998
==== e(   7) =    17.39495 eV ==== 
     psi = 0.184*[#  10]+0.184*[#  11]+0.184*[#  13]+0.131*[#   9]+0.131*[#  12]
          +0.023*[#   6]+0.023*[#   7]+0.023*[#   8]+0.018*[#   1]+0.009*[#   2]
          +0.001*[#   3]+0.001*[#   4]+0.001*[#   5]
    |psi|^2 = 0.916
==== e(   8) =    18.84965 eV ==== 
     psi = 0.347*[#   9]+0.347*[#  12]+0.101*[#  10]+0.101*[#  11]+0.101*[#  13]
          
    |psi|^2 = 0.998
==== e(   9) =    19.19156 eV ==== 
     psi = 0.332*[#  10]+0.332*[#  11]+0.332*[#  13]+0.001*[#   6]+0.001*[#   7]
          +0.001*[#   8]
    |psi|^2 = 1.000
==== e(  10) =    19.22162 eV ==== 
     psi = 0.495*[#   9]+0.495*[#  12]+0.002*[#   6]+0.002*[#   7]+0.002*[#   8]
          +0.002*[#   2]+0.001*[#  10]+0.001*[#  11]+0.001*[#  13]
    |psi|^2 = 1.002
==== e(  11) =    35.53071 eV ==== 
     psi = 0.512*[#   2]+0.064*[#   1]+0.037*[#   6]+0.037*[#   7]+0.037*[#   8]
          +0.005*[#  10]+0.005*[#  11]+0.005*[#  13]+0.002*[#   9]+0.002*[#  12]
          
    |psi|^2 = 0.709
==== e(  12) =    41.40971 eV ==== 
     psi = 0.032*[#   6]+0.032*[#   7]+0.032*[#   8]+0.012*[#   2]+0.002*[#   1]
          +0.001*[#   3]+0.001*[#   4]+0.001*[#   5]
    |psi|^2 = 0.114

 k =   0.0000000000 -0.3000000000  0.3500000000
==== e(   1) =   -67.31048 eV ==== 
     psi = 0.860*[#   1]+0.043*[#   6]+0.043*[#   7]+0.043*[#   8]+0.009*[#   2]
          
    |psi|^2 = 1.000
==== e(   2) =   -33.90745 eV ==== 
     psi = 0.154*[#   3]+0.154*[#   4]+0.154*[#   5]+0.014*[#   2]+0.004*[#   6]
          +0.004*[#   7]+0.004*[#   8]
    |psi|^2 = 0.491
==== e(   3) =   -33.62570 eV ==== 
     psi = 0.484*[#   3]+0.484*[#   4]+0.484*[#   5]+0.018*[#   6]+0.018*[#   7]
          +0.018*[#   8]
    |psi|^2 = 1.509
==== e(   4) =   -33.48911 eV ==== 
     psi = 0.166*[#   3]+0.166*[#   4]+0.166*[#   5]+0.008*[#   6]+0.008*[#   7]
          +0.008*[#   8]
    |psi|^2 = 0.521
==== e(   5) =    14.18533 eV ==== 
     psi = 0.225*[#   2]+0.107*[#   6]+0.107*[#   7]+0.107*[#   8]+0.089*[#  10]
          +0.089*[#  11]+0.089*[#  13]+0.060*[#   9]+0.060*[#  12]+0.044*[#   1]
          +0.007*[#   3]+0.007*[#   4]+0.007*[#   5]
    |psi|^2 = 0.997
==== e(   6) =    16.59384 eV ==== 
     psi = 0.333*[#  10]+0.333*[#  11]+0.333*[#  13]
    |psi|^2 = 0.998
==== e(   7) =    17.71883 eV ==== 
     psi = 0.153*[#   9]+0.153*[#  12]+0.099*[#  10]+0.099*[#  11]+0.099*[#  13]
          +0.050*[#   6]+0.050*[#   7]+0.050*[#   8]+0.028*[#   2]+0.026*[#   1]
          +0.003*[#   3]+0.003*[#   4]+0.003*[#   5]
    |psi|^2 = 0.816
==== e(   8) =    18.96228 eV ==== 
     psi = 0.293*[#   9]+0.293*[#  12]+0.133*[#  10]+0.133*[#  11]+0.133*[#  13]
          +0.002*[#   6]+0.002*[#   7]+0.002*[#   8]
    |psi|^2 = 0.992
==== e(   9) =    19.27628 eV ==== 
     psi = 0.491*[#   9]+0.491*[#  12]+0.004*[#   6]+0.004*[#   7]+0.004*[#   8]
          +0.003*[#   2]+0.001*[#   1]
    |psi|^2 = 0.999
==== e(  10) =    19.68100 eV ==== 
     psi = 0.332*[#  10]+0.332*[#  11]+0.332*[#  13]+0.002*[#   6]+0.002*[#   7]
          +0.002*[#   8]
    |psi|^2 = 1.000
==== e(  11) =    33.24826 eV ==== 
     psi = 0.623*[#   2]+0.057*[#   1]+0.039*[#   6]+0.039*[#   7]+0.039*[#   8]
          +0.010*[#  10]+0.010*[#  11]+0.010*[#  13]+0.003*[#   9]+0.003*[#  12]
          
    |psi|^2 = 0.836
==== e(  12) =    40.47503 eV ==== 
     psi = 0.048*[#   6]+0.048*[#   7]+0.048*[#   8]+0.009*[#   2]+0.002*[#   3]
          +0.002*[#   4]+0.002*[#   5]+0.001*[#   1]
    |psi|^2 = 0.161

 k =   0.0000000000 -0.3500000000  0.4000000000
==== e(   1) =   -67.29525 eV ==== 
     psi = 0.914*[#   1]+0.024*[#   6]+0.024*[#   7]+0.024*[#   8]+0.009*[#   2]
          +0.002*[#  10]+0.002*[#  11]+0.002*[#  13]
    |psi|^2 = 1.000
==== e(   2) =   -33.97991 eV ==== 
     psi = 0.156*[#   3]+0.156*[#   4]+0.156*[#   5]+0.009*[#   2]+0.005*[#   6]
          +0.005*[#   7]+0.005*[#   8]
    |psi|^2 = 0.493
==== e(   3) =   -33.64954 eV ==== 
     psi = 0.483*[#   3]+0.483*[#   4]+0.483*[#   5]+0.019*[#   6]+0.019*[#   7]
          +0.019*[#   8]
    |psi|^2 = 1.507
==== e(   4) =   -33.48920 eV ==== 
     psi = 0.164*[#   3]+0.164*[#   4]+0.164*[#   5]+0.008*[#   6]+0.008*[#   7]
          +0.008*[#   8]
    |psi|^2 = 0.514
==== e(   5) =    14.45664 eV ==== 
     psi = 0.184*[#   2]+0.139*[#  10]+0.139*[#  11]+0.139*[#  13]+0.106*[#   9]
          +0.106*[#  12]+0.052*[#   6]+0.052*[#   7]+0.052*[#   8]+0.017*[#   1]
          +0.003*[#   3]+0.003*[#   4]+0.003*[#   5]
    |psi|^2 = 0.998
==== e(   6) =    16.44074 eV ==== 
     psi = 0.332*[#  10]+0.332*[#  11]+0.332*[#  13]
    |psi|^2 = 0.998
==== e(   7) =    18.34458 eV ==== 
     psi = 0.211*[#   9]+0.211*[#  12]+0.067*[#   6]+0.067*[#   7]+0.067*[#   8]
          +0.043*[#   2]+0.018*[#   1]+0.017*[#  10]+0.017*[#  11]+0.017*[#  13]
          +0.004*[#   3]+0.004*[#   4]+0.004*[#   5]
    |psi|^2 = 0.750
==== e(   8) =    19.09261 eV ==== 
     psi = 0.265*[#   9]+0.265*[#  12]+0.141*[#  10]+0.141*[#  11]+0.141*[#  13]
          +0.007*[#   6]+0.007*[#   7]+0.007*[#   8]
    |psi|^2 = 0.976
==== e(   9) =    19.40500 eV ==== 
     psi = 0.412*[#   9]+0.412*[#  12]+0.035*[#   6]+0.035*[#   7]+0.035*[#   8]
          +0.016*[#  10]+0.016*[#  11]+0.016*[#  13]+0.012*[#   2]+0.004*[#   1]
          +0.002*[#   3]+0.002*[#   4]+0.002*[#   5]
    |psi|^2 = 0.999
==== e(  10) =    20.12268 eV ==== 
     psi = 0.332*[#  10]+0.332*[#  11]+0.332*[#  13]+0.001*[#   6]+0.001*[#   7]
          +0.001*[#   8]
    |psi|^2 = 1.000
==== e(  11) =    31.14349 eV ==== 
     psi = 0.684*[#   2]+0.042*[#   1]+0.037*[#   6]+0.037*[#   7]+0.037*[#   8]
          +0.017*[#  10]+0.017*[#  11]+0.017*[#  13]+0.005*[#   9]+0.005*[#  12]
          
    |psi|^2 = 0.898
==== e(  12) =    39.73187 eV ==== 
     psi = 0.059*[#   6]+0.059*[#   7]+0.059*[#   8]+0.007*[#   2]+0.003*[#   3]
          +0.003*[#   4]+0.003*[#   5]
    |psi|^2 = 0.194

 k =   0.0000000000 -0.4000000000  0.4500000000
==== e(   1) =   -67.28416 eV ==== 
     psi = 0.956*[#   1]+0.010*[#   2]+0.009*[#   6]+0.009*[#   7]+0.009*[#   8]
          +0.002*[#  10]+0.002*[#  11]+0.002*[#  13]
    |psi|^2 = 1.000
==== e(   2) =   -34.03225 eV ==== 
     psi = 0.158*[#   3]+0.158*[#   4]+0.158*[#   5]+0.005*[#   6]+0.005*[#   7]
          +0.005*[#   8]+0.004*[#   2]
    |psi|^2 = 0.496
==== e(   3) =   -33.66686 eV ==== 
     psi = 0.484*[#   3]+0.484*[#   4]+0.484*[#   5]+0.018*[#   6]+0.018*[#   7]
          +0.018*[#   8]
    |psi|^2 = 1.504
==== e(   4) =   -33.48922 eV ==== 
     psi = 0.162*[#   3]+0.162*[#   4]+0.162*[#   5]+0.007*[#   6]+0.007*[#   7]
          +0.007*[#   8]
    |psi|^2 = 0.508
==== e(   5) =    14.52868 eV ==== 
     psi = 0.168*[#  10]+0.168*[#  11]+0.168*[#  13]+0.155*[#   2]+0.140*[#   9]
          +0.140*[#  12]+0.017*[#   6]+0.017*[#   7]+0.017*[#   8]+0.006*[#   1]
          +0.001*[#   3]+0.001*[#   4]+0.001*[#   5]
    |psi|^2 = 0.998
==== e(   6) =    16.33134 eV ==== 
     psi = 0.332*[#  10]+0.332*[#  11]+0.332*[#  13]
    |psi|^2 = 0.998
==== e(   7) =    18.85931 eV ==== 
     psi = 0.355*[#   9]+0.355*[#  12]+0.033*[#   6]+0.033*[#   7]+0.033*[#   8]
          +0.022*[#   2]+0.012*[#  10]+0.012*[#  11]+0.012*[#  13]+0.003*[#   1]
          +0.002*[#   3]+0.002*[#   4]+0.002*[#   5]
    |psi|^2 = 0.877
==== e(   8) =    19.16050 eV ==== 
     psi = 0.341*[#   9]+0.341*[#  12]+0.089*[#  10]+0.089*[#  11]+0.089*[#  13]
          +0.007*[#   6]+0.007*[#   7]+0.007*[#   8]
    |psi|^2 = 0.975
==== e(   9) =    19.86906 eV ==== 
     psi = 0.175*[#   6]+0.175*[#   7]+0.175*[#   8]+0.154*[#   9]+0.154*[#  12]
          +0.035*[#  10]+0.035*[#  11]+0.035*[#  13]+0.030*[#   2]+0.008*[#   3]
          +0.008*[#   4]+0.008*[#   5]+0.005*[#   1]
    |psi|^2 = 0.996
==== e(  10) =    20.46058 eV ==== 
     psi = 0.333*[#  10]+0.333*[#  11]+0.333*[#  13]
    |psi|^2 = 1.000
==== e(  11) =    29.38536 eV ==== 
     psi = 0.738*[#   2]+0.027*[#   1]+0.027*[#  10]+0.027*[#  11]+0.027*[#  13]
          +0.026*[#   6]+0.026*[#   7]+0.026*[#   8]+0.008*[#   9]+0.008*[#  12]
          
    |psi|^2 = 0.940
==== e(  12) =    39.21699 eV ==== 
     psi = 0.066*[#   6]+0.066*[#   7]+0.066*[#   8]+0.006*[#   2]+0.003*[#   3]
          +0.003*[#   4]+0.003*[#   5]
    |psi|^2 = 0.215

 k =   0.0000000000 -0.4500000000  0.5000000000
==== e(   1) =   -67.27830 eV ==== 
     psi = 0.976*[#   1]+0.012*[#   2]+0.003*[#  10]+0.003*[#  11]+0.003*[#  13]
          +0.001*[#   6]+0.001*[#   7]+0.001*[#   8]
    |psi|^2 = 1.000
==== e(   2) =   -34.05931 eV ==== 
     psi = 0.161*[#   3]+0.161*[#   4]+0.161*[#   5]+0.005*[#   6]+0.005*[#   7]
          +0.005*[#   8]
    |psi|^2 = 0.498
==== e(   3) =   -33.67551 eV ==== 
     psi = 0.484*[#   3]+0.484*[#   4]+0.484*[#   5]+0.016*[#   6]+0.016*[#   7]
          +0.016*[#   8]
    |psi|^2 = 1.502
==== e(   4) =   -33.48912 eV ==== 
     psi = 0.160*[#   3]+0.160*[#   4]+0.160*[#   5]+0.007*[#   6]+0.007*[#   7]
          +0.007*[#   8]
    |psi|^2 = 0.503
==== e(   5) =    14.53245 eV ==== 
     psi = 0.179*[#  10]+0.179*[#  11]+0.179*[#  13]+0.157*[#   9]+0.157*[#  12]
          +0.139*[#   2]+0.003*[#   1]+0.002*[#   6]+0.002*[#   7]+0.002*[#   8]
          
    |psi|^2 = 0.998
==== e(   6) =    16.27442 eV ==== 
     psi = 0.332*[#  10]+0.332*[#  11]+0.332*[#  13]
    |psi|^2 = 0.998
==== e(   7) =    19.06030 eV ==== 
     psi = 0.374*[#   9]+0.374*[#  12]+0.059*[#  10]+0.059*[#  11]+0.059*[#  13]
          +0.010*[#   6]+0.010*[#   7]+0.010*[#   8]+0.008*[#   2]
    |psi|^2 = 0.965
==== e(   8) =    19.14620 eV ==== 
     psi = 0.393*[#   9]+0.393*[#  12]+0.050*[#  10]+0.050*[#  11]+0.050*[#  13]
          +0.010*[#   6]+0.010*[#   7]+0.010*[#   8]+0.001*[#   2]
    |psi|^2 = 0.968
==== e(   9) =    20.45001 eV ==== 
     psi = 0.273*[#   6]+0.273*[#   7]+0.273*[#   8]+0.064*[#   9]+0.064*[#  12]
          +0.009*[#   3]+0.009*[#   4]+0.009*[#   5]+0.008*[#   2]+0.005*[#  10]
          +0.005*[#  11]+0.005*[#  13]
    |psi|^2 = 0.996
==== e(  10) =    20.64470 eV ==== 
     psi = 0.333*[#  10]+0.333*[#  11]+0.333*[#  13]
    |psi|^2 = 1.000
==== e(  11) =    28.29425 eV ==== 
     psi = 0.798*[#   2]+0.037*[#  10]+0.037*[#  11]+0.037*[#  13]+0.019*[#   1]
          +0.010*[#   9]+0.010*[#  12]+0.008*[#   6]+0.008*[#   7]+0.008*[#   8]
          
    |psi|^2 = 0.973
==== e(  12) =    38.95386 eV ==== 
     psi = 0.070*[#   6]+0.070*[#   7]+0.070*[#   8]+0.005*[#   2]+0.003*[#   3]
          +0.003*[#   4]+0.003*[#   5]
    |psi|^2 = 0.226

 k =  -0.0500000000  0.0500000000  0.0500000000
==== e(   1) =   -67.39393 eV ==== 
     psi = 0.839*[#   1]+0.054*[#   2]+0.035*[#   6]+0.035*[#   7]+0.035*[#   8]
          
    |psi|^2 = 1.000
==== e(   2) =   -33.50963 eV ==== 
     psi = 0.218*[#   3]+0.218*[#   4]+0.218*[#   5]+0.014*[#   6]+0.014*[#   7]
          +0.014*[#   8]+0.009*[#   2]
    |psi|^2 = 0.705
==== e(   3) =   -33.48826 eV ==== 
     psi = 0.418*[#   3]+0.418*[#   4]+0.418*[#   5]+0.008*[#   6]+0.008*[#   7]
          +0.008*[#   8]
    |psi|^2 = 1.280
==== e(   4) =   -33.48826 eV ==== 
     psi = 0.234*[#   3]+0.234*[#   4]+0.234*[#   5]+0.004*[#   6]+0.004*[#   7]
          +0.004*[#   8]
    |psi|^2 = 0.713
==== e(   5) =    11.01102 eV ==== 
     psi = 0.748*[#   2]+0.120*[#   1]+0.042*[#   6]+0.042*[#   7]+0.042*[#   8]
          
    |psi|^2 = 0.998
==== e(   6) =    17.48724 eV ==== 
     psi = 0.333*[#  10]+0.333*[#  11]+0.333*[#  13]+0.014*[#   6]+0.014*[#   7]
          +0.014*[#   8]
    |psi|^2 = 1.042
==== e(   7) =    17.48724 eV ==== 
     psi = 0.333*[#  10]+0.333*[#  11]+0.333*[#  13]
    |psi|^2 = 0.999
==== e(   8) =    17.63707 eV ==== 
     psi = 0.333*[#  10]+0.333*[#  11]+0.333*[#  13]
    |psi|^2 = 0.999
==== e(   9) =    19.05407 eV ==== 
     psi = 0.499*[#   9]+0.499*[#  12]
    |psi|^2 = 1.000
==== e(  10) =    19.05407 eV ==== 
     psi = 0.499*[#   9]+0.499*[#  12]
    |psi|^2 = 1.000
==== e(  11) =    44.94471 eV ==== 

    |psi|^2 = 0.002
==== e(  12) =    44.94471 eV ==== 

    |psi|^2 = 0.002

 k =  -0.0500000000 -0.0500000000  0.1500000000
==== e(   1) =   -67.38271 eV ==== 
     psi = 0.783*[#   1]+0.070*[#   6]+0.070*[#   7]+0.070*[#   8]+0.008*[#   2]
          
    |psi|^2 = 1.000
==== e(   2) =   -33.55594 eV ==== 
     psi = 0.129*[#   3]+0.129*[#   4]+0.129*[#   5]+0.020*[#   2]+0.007*[#   6]
          +0.007*[#   7]+0.007*[#   8]
    |psi|^2 = 0.429
==== e(   3) =   -33.50702 eV ==== 
     psi = 0.521*[#   3]+0.521*[#   4]+0.521*[#   5]+0.009*[#   6]+0.009*[#   7]
          +0.009*[#   8]
    |psi|^2 = 1.590
==== e(   4) =   -33.49628 eV ==== 
     psi = 0.260*[#   3]+0.260*[#   4]+0.260*[#   5]+0.007*[#   6]+0.007*[#   7]
          +0.007*[#   8]+0.001*[#   2]
    |psi|^2 = 0.802
==== e(   5) =    11.44689 eV ==== 
     psi = 0.553*[#   2]+0.129*[#   1]+0.102*[#   6]+0.102*[#   7]+0.102*[#   8]
          +0.002*[#   3]+0.002*[#   4]+0.002*[#   5]
    |psi|^2 = 0.997
==== e(   6) =    17.41597 eV ==== 
     psi = 0.332*[#  10]+0.332*[#  11]+0.332*[#  13]+0.009*[#   6]+0.009*[#   7]
          +0.009*[#   8]
    |psi|^2 = 1.027
==== e(   7) =    17.47297 eV ==== 
     psi = 0.329*[#  10]+0.329*[#  11]+0.329*[#  13]+0.005*[#   9]+0.005*[#  12]
          
    |psi|^2 = 0.999
==== e(   8) =    17.83538 eV ==== 
     psi = 0.333*[#  10]+0.333*[#  11]+0.333*[#  13]
    |psi|^2 = 0.999
==== e(   9) =    18.85079 eV ==== 
     psi = 0.494*[#   9]+0.494*[#  12]+0.004*[#  10]+0.004*[#  11]+0.004*[#  13]
          
    |psi|^2 = 0.999
==== e(  10) =    19.14570 eV ==== 
     psi = 0.498*[#   9]+0.498*[#  12]
    |psi|^2 = 0.999
==== e(  11) =    42.98806 eV ==== 
     psi = 0.003*[#   6]+0.003*[#   7]+0.003*[#   8]
    |psi|^2 = 0.010
==== e(  12) =    44.42184 eV ==== 
     psi = 0.020*[#   2]+0.004*[#   1]
    |psi|^2 = 0.028

 k =  -0.0500000000 -0.1000000000  0.2000000000
==== e(   1) =   -67.36972 eV ==== 
     psi = 0.763*[#   1]+0.079*[#   6]+0.079*[#   7]+0.079*[#   8]
    |psi|^2 = 1.000
==== e(   2) =   -33.61828 eV ==== 
     psi = 0.138*[#   3]+0.138*[#   4]+0.138*[#   5]+0.025*[#   2]+0.004*[#   6]
          +0.004*[#   7]+0.004*[#   8]
    |psi|^2 = 0.450
==== e(   3) =   -33.52720 eV ==== 
     psi = 0.507*[#   3]+0.507*[#   4]+0.507*[#   5]+0.010*[#   6]+0.010*[#   7]
          +0.010*[#   8]
    |psi|^2 = 1.551
==== e(   4) =   -33.49870 eV ==== 
     psi = 0.221*[#   3]+0.221*[#   4]+0.221*[#   5]+0.007*[#   6]+0.007*[#   7]
          +0.007*[#   8]+0.001*[#   2]
    |psi|^2 = 0.686
==== e(   5) =    11.96716 eV ==== 
     psi = 0.435*[#   2]+0.136*[#   6]+0.136*[#   7]+0.136*[#   8]+0.129*[#   1]
          +0.005*[#   3]+0.005*[#   4]+0.005*[#   5]+0.002*[#  10]+0.002*[#  11]
          +0.002*[#  13]+0.002*[#   9]+0.002*[#  12]
    |psi|^2 = 0.997
==== e(   6) =    17.28504 eV ==== 
     psi = 0.331*[#  10]+0.331*[#  11]+0.331*[#  13]+0.007*[#   6]+0.007*[#   7]
          +0.007*[#   8]+0.002*[#   9]+0.002*[#  12]
    |psi|^2 = 1.018
==== e(   7) =    17.41556 eV ==== 
     psi = 0.314*[#  10]+0.314*[#  11]+0.314*[#  13]+0.025*[#   9]+0.025*[#  12]
          
    |psi|^2 = 0.997
==== e(   8) =    18.14116 eV ==== 
     psi = 0.331*[#  10]+0.331*[#  11]+0.331*[#  13]
    |psi|^2 = 0.998
==== e(   9) =    18.73684 eV ==== 
     psi = 0.474*[#   9]+0.474*[#  12]+0.017*[#  10]+0.017*[#  11]+0.017*[#  13]
          
    |psi|^2 = 0.999
==== e(  10) =    19.18505 eV ==== 
     psi = 0.495*[#   9]+0.495*[#  12]+0.002*[#  10]+0.002*[#  11]+0.002*[#  13]
          
    |psi|^2 = 0.998
==== e(  11) =    41.25940 eV ==== 
     psi = 0.028*[#   2]+0.011*[#   6]+0.011*[#   7]+0.011*[#   8]+0.005*[#   1]
          
    |psi|^2 = 0.072
==== e(  12) =    43.23696 eV ==== 
     psi = 0.067*[#   2]+0.012*[#   1]+0.003*[#   6]+0.003*[#   7]+0.003*[#   8]
          
    |psi|^2 = 0.089

 k =  -0.0500000000 -0.1500000000  0.2500000000
==== e(   1) =   -67.35332 eV ==== 
     psi = 0.766*[#   1]+0.077*[#   6]+0.077*[#   7]+0.077*[#   8]+0.003*[#   2]
          
    |psi|^2 = 1.000
==== e(   2) =   -33.69634 eV ==== 
     psi = 0.142*[#   3]+0.142*[#   4]+0.142*[#   5]+0.026*[#   2]+0.002*[#   6]
          +0.002*[#   7]+0.002*[#   8]
    |psi|^2 = 0.462
==== e(   3) =   -33.55471 eV ==== 
     psi = 0.500*[#   3]+0.500*[#   4]+0.500*[#   5]+0.012*[#   6]+0.012*[#   7]
          +0.012*[#   8]
    |psi|^2 = 1.538
==== e(   4) =   -33.49929 eV ==== 
     psi = 0.199*[#   3]+0.199*[#   4]+0.199*[#   5]+0.008*[#   6]+0.008*[#   7]
          +0.008*[#   8]
    |psi|^2 = 0.622
==== e(   5) =    12.64007 eV ==== 
     psi = 0.347*[#   2]+0.158*[#   6]+0.158*[#   7]+0.158*[#   8]+0.120*[#   1]
          +0.007*[#  10]+0.007*[#  11]+0.007*[#  13]+0.007*[#   3]+0.007*[#   4]
          +0.007*[#   5]+0.005*[#   9]+0.005*[#  12]
    |psi|^2 = 0.996
==== e(   6) =    17.10605 eV ==== 
     psi = 0.330*[#  10]+0.330*[#  11]+0.330*[#  13]+0.005*[#   6]+0.005*[#   7]
          +0.005*[#   8]+0.003*[#   9]+0.003*[#  12]
    |psi|^2 = 1.012
==== e(   7) =    17.33299 eV ==== 
     psi = 0.278*[#  10]+0.278*[#  11]+0.278*[#  13]+0.068*[#   9]+0.068*[#  12]
          +0.003*[#   6]+0.003*[#   7]+0.003*[#   8]+0.003*[#   1]+0.001*[#   2]
          
    |psi|^2 = 0.986
==== e(   8) =    18.54528 eV ==== 
     psi = 0.325*[#  10]+0.325*[#  11]+0.325*[#  13]+0.008*[#   9]+0.008*[#  12]
          +0.002*[#   6]+0.002*[#   7]+0.002*[#   8]
    |psi|^2 = 0.997
==== e(   9) =    18.68533 eV ==== 
     psi = 0.421*[#   9]+0.421*[#  12]+0.052*[#  10]+0.052*[#  11]+0.052*[#  13]
          
    |psi|^2 = 0.999
==== e(  10) =    19.22928 eV ==== 
     psi = 0.492*[#   9]+0.492*[#  12]+0.003*[#  10]+0.003*[#  11]+0.003*[#  13]
          +0.002*[#   2]
    |psi|^2 = 0.997
==== e(  11) =    39.10271 eV ==== 
     psi = 0.168*[#   2]+0.031*[#   6]+0.031*[#   7]+0.031*[#   8]+0.027*[#   1]
          +0.001*[#  10]+0.001*[#  11]+0.001*[#  13]+0.001*[#   9]+0.001*[#  12]
          
    |psi|^2 = 0.297
==== e(  12) =    42.12085 eV ==== 
     psi = 0.086*[#   2]+0.015*[#   1]+0.010*[#   6]+0.010*[#   7]+0.010*[#   8]
          
    |psi|^2 = 0.135

 k =  -0.0500000000 -0.2000000000  0.3000000000
==== e(   1) =   -67.33508 eV ==== 
     psi = 0.791*[#   1]+0.067*[#   6]+0.067*[#   7]+0.067*[#   8]+0.007*[#   2]
          
    |psi|^2 = 1.000
==== e(   2) =   -33.78196 eV ==== 
     psi = 0.146*[#   3]+0.146*[#   4]+0.146*[#   5]+0.022*[#   2]+0.003*[#   6]
          +0.003*[#   7]+0.003*[#   8]
    |psi|^2 = 0.470
==== e(   3) =   -33.58529 eV ==== 
     psi = 0.495*[#   3]+0.495*[#   4]+0.495*[#   5]+0.015*[#   6]+0.015*[#   7]
          +0.015*[#   8]
    |psi|^2 = 1.531
==== e(   4) =   -33.49949 eV ==== 
     psi = 0.186*[#   3]+0.186*[#   4]+0.186*[#   5]+0.008*[#   6]+0.008*[#   7]
          +0.008*[#   8]
    |psi|^2 = 0.584
==== e(   5) =    13.38422 eV ==== 
     psi = 0.286*[#   2]+0.162*[#   6]+0.162*[#   7]+0.162*[#   8]+0.098*[#   1]
          +0.024*[#  10]+0.024*[#  11]+0.024*[#  13]+0.015*[#   9]+0.015*[#  12]
          +0.009*[#   3]+0.009*[#   4]+0.009*[#   5]
    |psi|^2 = 0.996
==== e(   6) =    16.90974 eV ==== 
     psi = 0.329*[#  10]+0.329*[#  11]+0.329*[#  13]+0.005*[#   9]+0.005*[#  12]
          +0.004*[#   6]+0.004*[#   7]+0.004*[#   8]
    |psi|^2 = 1.008
==== e(   7) =    17.27465 eV ==== 
     psi = 0.223*[#  10]+0.223*[#  11]+0.223*[#  13]+0.118*[#   9]+0.118*[#  12]
          +0.011*[#   6]+0.011*[#   7]+0.011*[#   8]+0.009*[#   1]+0.004*[#   2]
          
    |psi|^2 = 0.956
==== e(   8) =    18.71408 eV ==== 
     psi = 0.368*[#   9]+0.368*[#  12]+0.088*[#  10]+0.088*[#  11]+0.088*[#  13]
          
    |psi|^2 = 0.999
==== e(   9) =    19.02434 eV ==== 
     psi = 0.323*[#  10]+0.323*[#  11]+0.323*[#  13]+0.008*[#   9]+0.008*[#  12]
          +0.004*[#   6]+0.004*[#   7]+0.004*[#   8]+0.001*[#   1]
    |psi|^2 = 1.000
==== e(  10) =    19.28442 eV ==== 
     psi = 0.483*[#   9]+0.483*[#  12]+0.006*[#  10]+0.006*[#  11]+0.006*[#  13]
          +0.004*[#   2]+0.002*[#   6]+0.002*[#   7]+0.002*[#   8]+0.002*[#   1]
          
    |psi|^2 = 0.998
==== e(  11) =    36.77893 eV ==== 
     psi = 0.370*[#   2]+0.053*[#   6]+0.053*[#   7]+0.053*[#   8]+0.051*[#   1]
          +0.004*[#  10]+0.004*[#  11]+0.004*[#  13]+0.002*[#   9]+0.002*[#  12]
          +0.001*[#   3]+0.001*[#   4]+0.001*[#   5]
    |psi|^2 = 0.599
==== e(  12) =    41.09411 eV ==== 
     psi = 0.073*[#   2]+0.029*[#   6]+0.029*[#   7]+0.029*[#   8]+0.011*[#   1]
          +0.001*[#   3]+0.001*[#   4]+0.001*[#   5]
    |psi|^2 = 0.178

 k =  -0.0500000000 -0.2500000000  0.3500000000
==== e(   1) =   -67.31681 eV ==== 
     psi = 0.834*[#   1]+0.051*[#   6]+0.051*[#   7]+0.051*[#   8]+0.010*[#   2]
          
    |psi|^2 = 1.000
==== e(   2) =   -33.86707 eV ==== 
     psi = 0.149*[#   3]+0.149*[#   4]+0.149*[#   5]+0.017*[#   2]+0.004*[#   6]
          +0.004*[#   7]+0.004*[#   8]
    |psi|^2 = 0.476
==== e(   3) =   -33.61578 eV ==== 
     psi = 0.491*[#   3]+0.491*[#   4]+0.491*[#   5]+0.017*[#   6]+0.017*[#   7]
          +0.017*[#   8]
    |psi|^2 = 1.526
==== e(   4) =   -33.49966 eV ==== 
     psi = 0.178*[#   3]+0.178*[#   4]+0.178*[#   5]+0.008*[#   6]+0.008*[#   7]
          +0.008*[#   8]
    |psi|^2 = 0.560
==== e(   5) =    14.04889 eV ==== 
     psi = 0.239*[#   2]+0.135*[#   6]+0.135*[#   7]+0.135*[#   8]+0.062*[#   1]
          +0.061*[#  10]+0.061*[#  11]+0.061*[#  13]+0.041*[#   9]+0.041*[#  12]
          +0.008*[#   3]+0.008*[#   4]+0.008*[#   5]
    |psi|^2 = 0.996
==== e(   6) =    16.71893 eV ==== 
     psi = 0.329*[#  10]+0.329*[#  11]+0.329*[#  13]+0.005*[#   9]+0.005*[#  12]
          +0.003*[#   6]+0.003*[#   7]+0.003*[#   8]
    |psi|^2 = 1.006
==== e(   7) =    17.37902 eV ==== 
     psi = 0.156*[#   9]+0.156*[#  12]+0.150*[#  10]+0.150*[#  11]+0.150*[#  13]
          +0.028*[#   6]+0.028*[#   7]+0.028*[#   8]+0.018*[#   1]+0.014*[#   2]
          +0.002*[#   3]+0.002*[#   4]+0.002*[#   5]
    |psi|^2 = 0.886
==== e(   8) =    18.82163 eV ==== 
     psi = 0.311*[#   9]+0.311*[#  12]+0.123*[#  10]+0.123*[#  11]+0.123*[#  13]
          +0.001*[#   6]+0.001*[#   7]+0.001*[#   8]
    |psi|^2 = 0.996
==== e(   9) =    19.32487 eV ==== 
     psi = 0.432*[#   9]+0.432*[#  12]+0.040*[#  10]+0.040*[#  11]+0.040*[#  13]
          +0.005*[#   2]+0.003*[#   6]+0.003*[#   7]+0.003*[#   8]
    |psi|^2 = 1.000
==== e(  10) =    19.56775 eV ==== 
     psi = 0.284*[#  10]+0.284*[#  11]+0.284*[#  13]+0.051*[#   9]+0.051*[#  12]
          +0.006*[#   6]+0.006*[#   7]+0.006*[#   8]+0.005*[#   2]+0.003*[#   1]
          
    |psi|^2 = 0.980
==== e(  11) =    34.45344 eV ==== 
     psi = 0.519*[#   2]+0.069*[#   6]+0.069*[#   7]+0.069*[#   8]+0.055*[#   1]
          +0.007*[#  10]+0.007*[#  11]+0.007*[#  13]+0.003*[#   9]+0.003*[#  12]
          +0.001*[#   3]+0.001*[#   4]+0.001*[#   5]
    |psi|^2 = 0.812
==== e(  12) =    40.17632 eV ==== 
     psi = 0.058*[#   2]+0.055*[#   6]+0.055*[#   7]+0.055*[#   8]+0.008*[#   1]
          +0.002*[#   3]+0.002*[#   4]+0.002*[#   5]
    |psi|^2 = 0.239

 k =  -0.0500000000 -0.3000000000  0.4000000000
==== e(   1) =   -67.30029 eV ==== 
     psi = 0.888*[#   1]+0.033*[#   6]+0.033*[#   7]+0.033*[#   8]+0.010*[#   2]
          +0.001*[#  10]+0.001*[#  11]+0.001*[#  13]
    |psi|^2 = 1.000
==== e(   2) =   -33.94345 eV ==== 
     psi = 0.151*[#   3]+0.151*[#   4]+0.151*[#   5]+0.011*[#   2]+0.005*[#   6]
          +0.005*[#   7]+0.005*[#   8]
    |psi|^2 = 0.481
==== e(   3) =   -33.64336 eV ==== 
     psi = 0.489*[#   3]+0.489*[#   4]+0.489*[#   5]+0.018*[#   6]+0.018*[#   7]
          +0.018*[#   8]
    |psi|^2 = 1.520
==== e(   4) =   -33.49978 eV ==== 
     psi = 0.172*[#   3]+0.172*[#   4]+0.172*[#   5]+0.008*[#   6]+0.008*[#   7]
          +0.008*[#   8]
    |psi|^2 = 0.541
==== e(   5) =    14.45999 eV ==== 
     psi = 0.196*[#   2]+0.115*[#  10]+0.115*[#  11]+0.115*[#  13]+0.086*[#   9]
          +0.086*[#  12]+0.081*[#   6]+0.081*[#   7]+0.081*[#   8]+0.027*[#   1]
          +0.005*[#   3]+0.005*[#   4]+0.005*[#   5]
    |psi|^2 = 0.997
==== e(   6) =    16.55249 eV ==== 
     psi = 0.330*[#  10]+0.330*[#  11]+0.330*[#  13]+0.003*[#   9]+0.003*[#  12]
          +0.003*[#   6]+0.003*[#   7]+0.003*[#   8]
    |psi|^2 = 1.004
==== e(   7) =    17.76074 eV ==== 
     psi = 0.194*[#   9]+0.194*[#  12]+0.069*[#  10]+0.069*[#  11]+0.069*[#  13]
          +0.049*[#   6]+0.049*[#   7]+0.049*[#   8]+0.029*[#   2]+0.019*[#   1]
          +0.003*[#   3]+0.003*[#   4]+0.003*[#   5]
    |psi|^2 = 0.800
==== e(   8) =    18.96476 eV ==== 
     psi = 0.270*[#   9]+0.270*[#  12]+0.146*[#  10]+0.146*[#  11]+0.146*[#  13]
          +0.003*[#   6]+0.003*[#   7]+0.003*[#   8]
    |psi|^2 = 0.989
==== e(   9) =    19.44947 eV ==== 
     psi = 0.417*[#   9]+0.417*[#  12]+0.034*[#  10]+0.034*[#  11]+0.034*[#  13]
          +0.016*[#   6]+0.016*[#   7]+0.016*[#   8]+0.012*[#   2]+0.003*[#   1]
          
    |psi|^2 = 0.999
==== e(  10) =    20.09487 eV ==== 
     psi = 0.288*[#  10]+0.288*[#  11]+0.288*[#  13]+0.025*[#   9]+0.025*[#  12]
          +0.011*[#   6]+0.011*[#   7]+0.011*[#   8]+0.009*[#   2]+0.003*[#   1]
          
    |psi|^2 = 0.960
==== e(  11) =    32.23868 eV ==== 
     psi = 0.604*[#   2]+0.076*[#   6]+0.076*[#   7]+0.076*[#   8]+0.044*[#   1]
          +0.013*[#  10]+0.013*[#  11]+0.013*[#  13]+0.005*[#   9]+0.005*[#  12]
          +0.001*[#   3]+0.001*[#   4]+0.001*[#   5]
    |psi|^2 = 0.926
==== e(  12) =    39.40587 eV ==== 
     psi = 0.076*[#   6]+0.076*[#   7]+0.076*[#   8]+0.047*[#   2]+0.006*[#   1]
          +0.003*[#   3]+0.003*[#   4]+0.003*[#   5]
    |psi|^2 = 0.290

 k =  -0.0500000000 -0.3500000000  0.4500000000
==== e(   1) =   -67.28716 eV ==== 
     psi = 0.937*[#   1]+0.015*[#   6]+0.015*[#   7]+0.015*[#   8]+0.011*[#   2]
          +0.002*[#  10]+0.002*[#  11]+0.002*[#  13]
    |psi|^2 = 1.000
==== e(   2) =   -34.00400 eV ==== 
     psi = 0.155*[#   3]+0.155*[#   4]+0.155*[#   5]+0.006*[#   2]+0.005*[#   6]
          +0.005*[#   7]+0.005*[#   8]
    |psi|^2 = 0.487
==== e(   3) =   -33.66502 eV ==== 
     psi = 0.488*[#   3]+0.488*[#   4]+0.488*[#   5]+0.017*[#   6]+0.017*[#   7]
          +0.017*[#   8]
    |psi|^2 = 1.514
==== e(   4) =   -33.49967 eV ==== 
     psi = 0.167*[#   3]+0.167*[#   4]+0.167*[#   5]+0.008*[#   6]+0.008*[#   7]
          +0.008*[#   8]
    |psi|^2 = 0.525
==== e(   5) =    14.60675 eV ==== 
     psi = 0.159*[#   2]+0.155*[#  10]+0.155*[#  11]+0.155*[#  13]+0.129*[#   9]
          +0.129*[#  12]+0.034*[#   6]+0.034*[#   7]+0.034*[#   8]+0.009*[#   1]
          +0.002*[#   3]+0.002*[#   4]+0.002*[#   5]
    |psi|^2 = 0.998
==== e(   6) =    16.42387 eV ==== 
     psi = 0.331*[#  10]+0.331*[#  11]+0.331*[#  13]+0.002*[#   6]+0.002*[#   7]
          +0.002*[#   8]+0.002*[#   9]+0.002*[#  12]
    |psi|^2 = 1.003
==== e(   7) =    18.26178 eV ==== 
     psi = 0.272*[#   9]+0.272*[#  12]+0.049*[#   6]+0.049*[#   7]+0.049*[#   8]
          +0.027*[#   2]+0.021*[#  10]+0.021*[#  11]+0.021*[#  13]+0.008*[#   1]
          +0.003*[#   3]+0.003*[#   4]+0.003*[#   5]
    |psi|^2 = 0.800
==== e(   8) =    19.06254 eV ==== 
     psi = 0.292*[#   9]+0.292*[#  12]+0.131*[#  10]+0.131*[#  11]+0.131*[#  13]
          +0.004*[#   6]+0.004*[#   7]+0.004*[#   8]
    |psi|^2 = 0.989
==== e(   9) =    19.73358 eV ==== 
     psi = 0.266*[#   9]+0.266*[#  12]+0.092*[#  10]+0.092*[#  11]+0.092*[#  13]
          +0.053*[#   6]+0.053*[#   7]+0.053*[#   8]+0.019*[#   2]+0.003*[#   1]
          +0.003*[#   3]+0.003*[#   4]+0.003*[#   5]
    |psi|^2 = 0.999
==== e(  10) =    20.63454 eV ==== 
     psi = 0.244*[#  10]+0.244*[#  11]+0.244*[#  13]+0.032*[#   9]+0.032*[#  12]
          +0.026*[#   6]+0.026*[#   7]+0.026*[#   8]+0.019*[#   2]+0.003*[#   1]
          +0.001*[#   3]+0.001*[#   4]+0.001*[#   5]
    |psi|^2 = 0.897
==== e(  11) =    30.26334 eV ==== 
     psi = 0.664*[#   2]+0.087*[#   6]+0.087*[#   7]+0.087*[#   8]+0.031*[#   1]
          +0.021*[#  10]+0.021*[#  11]+0.021*[#  13]+0.007*[#   9]+0.007*[#  12]
          +0.001*[#   3]+0.001*[#   4]+0.001*[#   5]
    |psi|^2 = 1.035
==== e(  12) =    38.82205 eV ==== 
     psi = 0.090*[#   6]+0.090*[#   7]+0.090*[#   8]+0.039*[#   2]+0.004*[#   1]
          +0.003*[#   3]+0.003*[#   4]+0.003*[#   5]
    |psi|^2 = 0.325

 k =  -0.0500000000 -0.4000000000  0.5000000000
==== e(   1) =   -67.27873 eV ==== 
     psi = 0.967*[#   1]+0.012*[#   2]+0.004*[#   6]+0.004*[#   7]+0.004*[#   8]
          +0.002*[#  10]+0.002*[#  11]+0.002*[#  13]
    |psi|^2 = 1.000
==== e(   2) =   -34.04293 eV ==== 
     psi = 0.159*[#   3]+0.159*[#   4]+0.159*[#   5]+0.005*[#   6]+0.005*[#   7]
          +0.005*[#   8]+0.002*[#   2]
    |psi|^2 = 0.493
==== e(   3) =   -33.67910 eV ==== 
     psi = 0.487*[#   3]+0.487*[#   4]+0.487*[#   5]+0.015*[#   6]+0.015*[#   7]
          +0.015*[#   8]
    |psi|^2 = 1.508
==== e(   4) =   -33.49961 eV ==== 
     psi = 0.164*[#   3]+0.164*[#   4]+0.164*[#   5]+0.007*[#   6]+0.007*[#   7]
          +0.007*[#   8]
    |psi|^2 = 0.513
==== e(   5) =    14.62681 eV ==== 
     psi = 0.173*[#  10]+0.173*[#  11]+0.173*[#  13]+0.154*[#   9]+0.154*[#  12]
          +0.136*[#   2]+0.010*[#   6]+0.010*[#   7]+0.010*[#   8]+0.003*[#   1]
          
    |psi|^2 = 0.998
==== e(   6) =    16.34267 eV ==== 
     psi = 0.331*[#  10]+0.331*[#  11]+0.331*[#  13]+0.002*[#   6]+0.002*[#   7]
          +0.002*[#   8]
    |psi|^2 = 1.002
==== e(   7) =    18.59940 eV ==== 
     psi = 0.346*[#   9]+0.346*[#  12]+0.038*[#   6]+0.038*[#   7]+0.038*[#   8]
          +0.013*[#  10]+0.013*[#  11]+0.013*[#  13]+0.009*[#   2]+0.002*[#   3]
          +0.002*[#   4]+0.002*[#   5]+0.001*[#   1]
    |psi|^2 = 0.859
==== e(   8) =    19.07497 eV ==== 
     psi = 0.321*[#   9]+0.321*[#  12]+0.114*[#  10]+0.114*[#  11]+0.114*[#  13]
          +0.005*[#   2]+0.002*[#   6]+0.002*[#   7]+0.002*[#   8]
    |psi|^2 = 0.996
==== e(   9) =    20.10055 eV ==== 
     psi = 0.170*[#  10]+0.170*[#  11]+0.170*[#  13]+0.127*[#   9]+0.127*[#  12]
          +0.072*[#   6]+0.072*[#   7]+0.072*[#   8]+0.008*[#   2]+0.003*[#   3]
          +0.003*[#   4]+0.003*[#   5]
    |psi|^2 = 0.999
==== e(  10) =    21.18188 eV ==== 
     psi = 0.161*[#  10]+0.161*[#  11]+0.161*[#  13]+0.062*[#   6]+0.062*[#   7]
          +0.062*[#   8]+0.041*[#   9]+0.041*[#  12]+0.018*[#   2]+0.002*[#   3]
          +0.002*[#   4]+0.002*[#   5]+0.001*[#   1]
    |psi|^2 = 0.774
==== e(  11) =    28.75838 eV ==== 
     psi = 0.733*[#   2]+0.105*[#   6]+0.105*[#   7]+0.105*[#   8]+0.032*[#  10]
          +0.032*[#  11]+0.032*[#  13]+0.020*[#   1]+0.009*[#   9]+0.009*[#  12]
          +0.002*[#   3]+0.002*[#   4]+0.002*[#   5]
    |psi|^2 = 1.190
==== e(  12) =    38.45635 eV ==== 
     psi = 0.098*[#   6]+0.098*[#   7]+0.098*[#   8]+0.033*[#   2]+0.003*[#   3]
          +0.003*[#   4]+0.003*[#   5]+0.003*[#   1]
    |psi|^2 = 0.343

 k =  -0.0500000000  0.5500000000 -0.4500000000
==== e(   1) =   -67.27582 eV ==== 
     psi = 0.976*[#   1]+0.013*[#   2]+0.003*[#  10]+0.003*[#  11]+0.003*[#  13]
          
    |psi|^2 = 1.000
==== e(   2) =   -34.05612 eV ==== 
     psi = 0.162*[#   3]+0.162*[#   4]+0.162*[#   5]+0.005*[#   6]+0.005*[#   7]
          +0.005*[#   8]
    |psi|^2 = 0.501
==== e(   3) =   -33.68391 eV ==== 
     psi = 0.485*[#   3]+0.485*[#   4]+0.485*[#   5]+0.014*[#   6]+0.014*[#   7]
          +0.014*[#   8]
    |psi|^2 = 1.498
==== e(   4) =   -33.49967 eV ==== 
     psi = 0.161*[#   3]+0.161*[#   4]+0.161*[#   5]+0.006*[#   6]+0.006*[#   7]
          +0.006*[#   8]
    |psi|^2 = 0.502
==== e(   5) =    14.62309 eV ==== 
     psi = 0.178*[#  10]+0.178*[#  11]+0.178*[#  13]+0.162*[#   9]+0.162*[#  12]
          +0.128*[#   2]+0.003*[#   6]+0.003*[#   7]+0.003*[#   8]+0.002*[#   1]
          
    |psi|^2 = 0.999
==== e(   6) =    16.31491 eV ==== 
     psi = 0.332*[#  10]+0.332*[#  11]+0.332*[#  13]+0.002*[#   6]+0.002*[#   7]
          +0.002*[#   8]
    |psi|^2 = 1.001
==== e(   7) =    18.71463 eV ==== 
     psi = 0.370*[#   9]+0.370*[#  12]+0.036*[#   6]+0.036*[#   7]+0.036*[#   8]
          +0.011*[#  10]+0.011*[#  11]+0.011*[#  13]+0.002*[#   3]+0.002*[#   4]
          +0.002*[#   5]
    |psi|^2 = 0.886
==== e(   8) =    19.06102 eV ==== 
     psi = 0.325*[#   9]+0.325*[#  12]+0.113*[#  10]+0.113*[#  11]+0.113*[#  13]
          +0.008*[#   2]
    |psi|^2 = 1.001
==== e(   9) =    20.25280 eV ==== 
     psi = 0.204*[#  10]+0.204*[#  11]+0.204*[#  13]+0.088*[#   9]+0.088*[#  12]
          +0.068*[#   6]+0.068*[#   7]+0.068*[#   8]+0.002*[#   3]+0.002*[#   4]
          +0.002*[#   5]
    |psi|^2 = 0.999
==== e(  10) =    21.46997 eV ==== 
     psi = 0.118*[#  10]+0.118*[#  11]+0.118*[#  13]+0.091*[#   6]+0.091*[#   7]
          +0.091*[#   8]+0.042*[#   9]+0.042*[#  12]+0.002*[#   3]+0.002*[#   4]
          +0.002*[#   5]
    |psi|^2 = 0.717
==== e(  11) =    28.15236 eV ==== 
     psi = 0.779*[#   2]+0.100*[#   6]+0.100*[#   7]+0.100*[#   8]+0.039*[#  10]
          +0.039*[#  11]+0.039*[#  13]+0.017*[#   1]+0.011*[#   9]+0.011*[#  12]
          +0.002*[#   3]+0.002*[#   4]+0.002*[#   5]
    |psi|^2 = 1.240
==== e(  12) =    38.33147 eV ==== 
     psi = 0.101*[#   6]+0.101*[#   7]+0.101*[#   8]+0.031*[#   2]+0.003*[#   3]
          +0.003*[#   4]+0.003*[#   5]+0.003*[#   1]
    |psi|^2 = 0.349

 k =  -0.1000000000  0.1000000000  0.0500000000
==== e(   1) =   -67.38552 eV ==== 
     psi = 0.792*[#   1]+0.065*[#   6]+0.065*[#   7]+0.065*[#   8]+0.013*[#   2]
          
    |psi|^2 = 1.000
==== e(   2) =   -33.55206 eV ==== 
     psi = 0.273*[#   3]+0.273*[#   4]+0.273*[#   5]+0.030*[#   6]+0.030*[#   7]
          +0.030*[#   8]+0.019*[#   2]
    |psi|^2 = 0.927
==== e(   3) =   -33.50036 eV ==== 
     psi = 0.106*[#   3]+0.106*[#   4]+0.106*[#   5]+0.001*[#   6]+0.001*[#   7]
          +0.001*[#   8]
    |psi|^2 = 0.322
==== e(   4) =   -33.48834 eV ==== 
     psi = 0.462*[#   3]+0.462*[#   4]+0.462*[#   5]+0.009*[#   6]+0.009*[#   7]
          +0.009*[#   8]
    |psi|^2 = 1.410
==== e(   5) =    11.33900 eV ==== 
     psi = 0.589*[#   2]+0.128*[#   1]+0.091*[#   6]+0.091*[#   7]+0.091*[#   8]
          +0.002*[#   3]+0.002*[#   4]+0.002*[#   5]
    |psi|^2 = 0.997
==== e(   6) =    17.38640 eV ==== 
     psi = 0.332*[#  10]+0.332*[#  11]+0.332*[#  13]+0.040*[#   6]+0.040*[#   7]
          +0.040*[#   8]+0.001*[#   9]+0.001*[#  12]
    |psi|^2 = 1.123
==== e(   7) =    17.45628 eV ==== 
     psi = 0.329*[#  10]+0.329*[#  11]+0.329*[#  13]+0.006*[#   9]+0.006*[#  12]
          
    |psi|^2 = 0.999
==== e(   8) =    17.84227 eV ==== 
     psi = 0.332*[#  10]+0.332*[#  11]+0.332*[#  13]
    |psi|^2 = 0.999
==== e(   9) =    18.96856 eV ==== 
     psi = 0.494*[#   9]+0.494*[#  12]+0.004*[#  10]+0.004*[#  11]+0.004*[#  13]
          
    |psi|^2 = 0.999
==== e(  10) =    19.06849 eV ==== 
     psi = 0.498*[#   9]+0.498*[#  12]
    |psi|^2 = 1.000
==== e(  11) =    43.35900 eV ==== 
     psi = 0.005*[#   2]+0.003*[#   6]+0.003*[#   7]+0.003*[#   8]
    |psi|^2 = 0.016
==== e(  12) =    44.30291 eV ==== 
     psi = 0.004*[#   6]+0.004*[#   7]+0.004*[#   8]
    |psi|^2 = 0.012

 k =  -0.1000000000 -0.1000000000  0.2500000000
==== e(   1) =   -67.35543 eV ==== 
     psi = 0.763*[#   1]+0.078*[#   6]+0.078*[#   7]+0.078*[#   8]+0.002*[#   2]
          
    |psi|^2 = 1.000
==== e(   2) =   -33.68247 eV ==== 
     psi = 0.141*[#   3]+0.141*[#   4]+0.141*[#   5]+0.026*[#   2]+0.009*[#   6]
          +0.009*[#   7]+0.009*[#   8]
    |psi|^2 = 0.478
==== e(   3) =   -33.54521 eV ==== 
     psi = 0.505*[#   3]+0.505*[#   4]+0.505*[#   5]+0.011*[#   6]+0.011*[#   7]
          +0.011*[#   8]
    |psi|^2 = 1.550
==== e(   4) =   -33.50860 eV ==== 
     psi = 0.252*[#   3]+0.252*[#   4]+0.252*[#   5]+0.009*[#   6]+0.009*[#   7]
          +0.009*[#   8]+0.001*[#   2]
    |psi|^2 = 0.783
==== e(   5) =    12.55434 eV ==== 
     psi = 0.357*[#   2]+0.157*[#   6]+0.157*[#   7]+0.157*[#   8]+0.123*[#   1]
          +0.007*[#   3]+0.007*[#   4]+0.007*[#   5]+0.005*[#  10]+0.005*[#  11]
          +0.005*[#  13]+0.004*[#   9]+0.004*[#  12]
    |psi|^2 = 0.996
==== e(   6) =    17.20311 eV ==== 
     psi = 0.327*[#  10]+0.327*[#  11]+0.327*[#  13]+0.020*[#   6]+0.020*[#   7]
          +0.020*[#   8]+0.004*[#   9]+0.004*[#  12]
    |psi|^2 = 1.053
==== e(   7) =    17.26679 eV ==== 
     psi = 0.294*[#  10]+0.294*[#  11]+0.294*[#  13]+0.055*[#   9]+0.055*[#  12]
          +0.003*[#   6]+0.003*[#   7]+0.003*[#   8]
    |psi|^2 = 1.002
==== e(   8) =    18.50864 eV ==== 
     psi = 0.329*[#  10]+0.329*[#  11]+0.329*[#  13]+0.002*[#   6]+0.002*[#   7]
          +0.002*[#   8]+0.001*[#   1]
    |psi|^2 = 0.995
==== e(   9) =    18.63632 eV ==== 
     psi = 0.443*[#   9]+0.443*[#  12]+0.037*[#  10]+0.037*[#  11]+0.037*[#  13]
          
    |psi|^2 = 0.999
==== e(  10) =    19.25114 eV ==== 
     psi = 0.491*[#   9]+0.491*[#  12]+0.003*[#  10]+0.003*[#  11]+0.003*[#  13]
          +0.002*[#   2]
    |psi|^2 = 0.996
==== e(  11) =    39.90984 eV ==== 
     psi = 0.037*[#   6]+0.037*[#   7]+0.037*[#   8]+0.001*[#   9]+0.001*[#  12]
          +0.001*[#   3]+0.001*[#   4]+0.001*[#   5]
    |psi|^2 = 0.119
==== e(  12) =    41.40797 eV ==== 
     psi = 0.218*[#   2]+0.037*[#   1]+0.005*[#   6]+0.005*[#   7]+0.005*[#   8]
          +0.001*[#  10]+0.001*[#  11]+0.001*[#  13]
    |psi|^2 = 0.275

 k =  -0.1000000000 -0.1500000000  0.3000000000
==== e(   1) =   -67.33861 eV ==== 
     psi = 0.780*[#   1]+0.071*[#   6]+0.071*[#   7]+0.071*[#   8]+0.007*[#   2]
          
    |psi|^2 = 1.000
==== e(   2) =   -33.75725 eV ==== 
     psi = 0.143*[#   3]+0.143*[#   4]+0.143*[#   5]+0.024*[#   2]+0.006*[#   6]
          +0.006*[#   7]+0.006*[#   8]
    |psi|^2 = 0.473
==== e(   3) =   -33.57380 eV ==== 
     psi = 0.501*[#   3]+0.501*[#   4]+0.501*[#   5]+0.013*[#   6]+0.013*[#   7]
          +0.013*[#   8]
    |psi|^2 = 1.542
==== e(   4) =   -33.51332 eV ==== 
     psi = 0.224*[#   3]+0.224*[#   4]+0.224*[#   5]+0.010*[#   6]+0.010*[#   7]
          +0.010*[#   8]+0.001*[#   2]
    |psi|^2 = 0.703
==== e(   5) =    13.25849 eV ==== 
     psi = 0.295*[#   2]+0.167*[#   6]+0.167*[#   7]+0.167*[#   8]+0.106*[#   1]
          +0.015*[#  10]+0.015*[#  11]+0.015*[#  13]+0.011*[#   9]+0.011*[#  12]
          +0.009*[#   3]+0.009*[#   4]+0.009*[#   5]
    |psi|^2 = 0.996
==== e(   6) =    17.03408 eV ==== 
     psi = 0.308*[#  10]+0.308*[#  11]+0.308*[#  13]+0.034*[#   9]+0.034*[#  12]
          +0.015*[#   6]+0.015*[#   7]+0.015*[#   8]
    |psi|^2 = 1.039
==== e(   7) =    17.15062 eV ==== 
     psi = 0.274*[#  10]+0.274*[#  11]+0.274*[#  13]+0.072*[#   9]+0.072*[#  12]
          +0.005*[#   6]+0.005*[#   7]+0.005*[#   8]+0.003*[#   1]+0.001*[#   2]
          
    |psi|^2 = 0.985
==== e(   8) =    18.61132 eV ==== 
     psi = 0.393*[#   9]+0.393*[#  12]+0.071*[#  10]+0.071*[#  11]+0.071*[#  13]
          
    |psi|^2 = 1.002
==== e(   9) =    18.96994 eV ==== 
     psi = 0.318*[#  10]+0.318*[#  11]+0.318*[#  13]+0.010*[#   9]+0.010*[#  12]
          +0.007*[#   6]+0.007*[#   7]+0.007*[#   8]+0.002*[#   1]
    |psi|^2 = 0.999
==== e(  10) =    19.33087 eV ==== 
     psi = 0.477*[#   9]+0.477*[#  12]+0.008*[#  10]+0.008*[#  11]+0.008*[#  13]
          +0.006*[#   2]+0.003*[#   6]+0.003*[#   7]+0.003*[#   8]+0.002*[#   1]
          
    |psi|^2 = 0.995
==== e(  11) =    38.00898 eV ==== 
     psi = 0.122*[#   2]+0.079*[#   6]+0.079*[#   7]+0.079*[#   8]+0.018*[#   1]
          +0.002*[#   3]+0.002*[#   4]+0.002*[#   5]+0.002*[#  10]+0.002*[#  11]
          +0.002*[#  13]+0.002*[#   9]+0.002*[#  12]
    |psi|^2 = 0.395
==== e(  12) =    39.97549 eV ==== 
     psi = 0.260*[#   2]+0.040*[#   1]+0.021*[#   6]+0.021*[#   7]+0.021*[#   8]
          +0.001*[#  10]+0.001*[#  11]+0.001*[#  13]
    |psi|^2 = 0.371

 k =  -0.1000000000 -0.2000000000  0.3500000000
==== e(   1) =   -67.32088 eV ==== 
     psi = 0.816*[#   1]+0.057*[#   6]+0.057*[#   7]+0.057*[#   8]+0.010*[#   2]
          
    |psi|^2 = 1.000
==== e(   2) =   -33.83471 eV ==== 
     psi = 0.144*[#   3]+0.144*[#   4]+0.144*[#   5]+0.020*[#   2]+0.005*[#   6]
          +0.005*[#   7]+0.005*[#   8]
    |psi|^2 = 0.470
==== e(   3) =   -33.60723 eV ==== 
     psi = 0.499*[#   3]+0.499*[#   4]+0.499*[#   5]+0.014*[#   6]+0.014*[#   7]
          +0.014*[#   8]
    |psi|^2 = 1.539
==== e(   4) =   -33.51530 eV ==== 
     psi = 0.204*[#   3]+0.204*[#   4]+0.204*[#   5]+0.010*[#   6]+0.010*[#   7]
          +0.010*[#   8]+0.001*[#   2]
    |psi|^2 = 0.644
==== e(   5) =    13.97181 eV ==== 
     psi = 0.247*[#   2]+0.157*[#   6]+0.157*[#   7]+0.157*[#   8]+0.077*[#   1]
          +0.040*[#  10]+0.040*[#  11]+0.040*[#  13]+0.027*[#   9]+0.027*[#  12]
          +0.009*[#   3]+0.009*[#   4]+0.009*[#   5]
    |psi|^2 = 0.996
==== e(   6) =    16.82856 eV ==== 
     psi = 0.298*[#  10]+0.298*[#  11]+0.298*[#  13]+0.048*[#   9]+0.048*[#  12]
          +0.013*[#   6]+0.013*[#   7]+0.013*[#   8]
    |psi|^2 = 1.030
==== e(   7) =    17.12215 eV ==== 
     psi = 0.228*[#  10]+0.228*[#  11]+0.228*[#  13]+0.103*[#   9]+0.103*[#  12]
          +0.012*[#   6]+0.012*[#   7]+0.012*[#   8]+0.009*[#   1]+0.006*[#   2]
          
    |psi|^2 = 0.944
==== e(   8) =    18.67423 eV ==== 
     psi = 0.340*[#   9]+0.340*[#  12]+0.106*[#  10]+0.106*[#  11]+0.106*[#  13]
          +0.001*[#   6]+0.001*[#   7]+0.001*[#   8]
    |psi|^2 = 1.002
==== e(   9) =    19.31805 eV ==== 
     psi = 0.328*[#   9]+0.328*[#  12]+0.113*[#  10]+0.113*[#  11]+0.113*[#  13]
          +0.002*[#   2]
    |psi|^2 = 1.000
==== e(  10) =    19.60884 eV ==== 
     psi = 0.204*[#  10]+0.204*[#  11]+0.204*[#  13]+0.150*[#   9]+0.150*[#  12]
          +0.012*[#   2]+0.009*[#   6]+0.009*[#   7]+0.009*[#   8]+0.007*[#   1]
          
    |psi|^2 = 0.959
==== e(  11) =    35.75725 eV ==== 
     psi = 0.323*[#   2]+0.114*[#   6]+0.114*[#   7]+0.114*[#   8]+0.037*[#   1]
          +0.005*[#  10]+0.005*[#  11]+0.005*[#  13]+0.003*[#   9]+0.003*[#  12]
          +0.003*[#   3]+0.003*[#   4]+0.003*[#   5]
    |psi|^2 = 0.731
==== e(  12) =    38.94362 eV ==== 
     psi = 0.204*[#   2]+0.063*[#   6]+0.063*[#   7]+0.063*[#   8]+0.028*[#   1]
          +0.002*[#   3]+0.002*[#   4]+0.002*[#   5]+0.002*[#  10]+0.002*[#  11]
          +0.002*[#  13]
    |psi|^2 = 0.435

 k =  -0.1000000000 -0.2500000000  0.4000000000
==== e(   1) =   -67.30397 eV ==== 
     psi = 0.865*[#   1]+0.040*[#   6]+0.040*[#   7]+0.040*[#   8]+0.012*[#   2]
          
    |psi|^2 = 1.000
==== e(   2) =   -33.90763 eV ==== 
     psi = 0.146*[#   3]+0.146*[#   4]+0.146*[#   5]+0.014*[#   2]+0.005*[#   6]
          +0.005*[#   7]+0.005*[#   8]
    |psi|^2 = 0.471
==== e(   3) =   -33.63977 eV ==== 
     psi = 0.497*[#   3]+0.497*[#   4]+0.497*[#   5]+0.014*[#   6]+0.014*[#   7]
          +0.014*[#   8]
    |psi|^2 = 1.537
==== e(   4) =   -33.51631 eV ==== 
     psi = 0.190*[#   3]+0.190*[#   4]+0.190*[#   5]+0.009*[#   6]+0.009*[#   7]
          +0.009*[#   8]+0.001*[#   2]
    |psi|^2 = 0.599
==== e(   5) =    14.51878 eV ==== 
     psi = 0.203*[#   2]+0.114*[#   6]+0.114*[#   7]+0.114*[#   8]+0.089*[#  10]
          +0.089*[#  11]+0.089*[#  13]+0.062*[#   9]+0.062*[#  12]+0.040*[#   1]
          +0.007*[#   3]+0.007*[#   4]+0.007*[#   5]
    |psi|^2 = 0.997
==== e(   6) =    16.65215 eV ==== 
     psi = 0.306*[#  10]+0.306*[#  11]+0.306*[#  13]+0.036*[#   9]+0.036*[#  12]
          +0.011*[#   6]+0.011*[#   7]+0.011*[#   8]
    |psi|^2 = 1.023
==== e(   7) =    17.26978 eV ==== 
     psi = 0.151*[#  10]+0.151*[#  11]+0.151*[#  13]+0.147*[#   9]+0.147*[#  12]
          +0.028*[#   6]+0.028*[#   7]+0.028*[#   8]+0.017*[#   2]+0.014*[#   1]
          +0.002*[#   3]+0.002*[#   4]+0.002*[#   5]
    |psi|^2 = 0.869
==== e(   8) =    18.80302 eV ==== 
     psi = 0.293*[#   9]+0.293*[#  12]+0.135*[#  10]+0.135*[#  11]+0.135*[#  13]
          +0.002*[#   6]+0.002*[#   7]+0.002*[#   8]
    |psi|^2 = 0.999
==== e(   9) =    19.42898 eV ==== 
     psi = 0.395*[#   9]+0.395*[#  12]+0.062*[#  10]+0.062*[#  11]+0.062*[#  13]
          +0.009*[#   2]+0.004*[#   6]+0.004*[#   7]+0.004*[#   8]+0.001*[#   1]
          
    |psi|^2 = 1.000
==== e(  10) =    20.21236 eV ==== 
     psi = 0.242*[#  10]+0.242*[#  11]+0.242*[#  13]+0.061*[#   9]+0.061*[#  12]
          +0.019*[#   2]+0.016*[#   6]+0.016*[#   7]+0.016*[#   8]+0.007*[#   1]
          
    |psi|^2 = 0.923
==== e(  11) =    33.48587 eV ==== 
     psi = 0.455*[#   2]+0.129*[#   6]+0.129*[#   7]+0.129*[#   8]+0.038*[#   1]
          +0.009*[#  10]+0.009*[#  11]+0.009*[#  13]+0.004*[#   9]+0.004*[#  12]
          +0.002*[#   3]+0.002*[#   4]+0.002*[#   5]
    |psi|^2 = 0.925
==== e(  12) =    38.11570 eV ==== 
     psi = 0.162*[#   2]+0.104*[#   6]+0.104*[#   7]+0.104*[#   8]+0.020*[#   1]
          +0.003*[#   3]+0.003*[#   4]+0.003*[#   5]+0.002*[#  10]+0.002*[#  11]
          +0.002*[#  13]
    |psi|^2 = 0.511

 k =  -0.1000000000 -0.3000000000  0.4500000000
==== e(   1) =   -67.28957 eV ==== 
     psi = 0.917*[#   1]+0.022*[#   6]+0.022*[#   7]+0.022*[#   8]+0.012*[#   2]
          +0.001*[#  10]+0.001*[#  11]+0.001*[#  13]
    |psi|^2 = 1.000
==== e(   2) =   -33.96924 eV ==== 
     psi = 0.150*[#   3]+0.150*[#   4]+0.150*[#   5]+0.009*[#   2]+0.005*[#   6]
          +0.005*[#   7]+0.005*[#   8]
    |psi|^2 = 0.475
==== e(   3) =   -33.66806 eV ==== 
     psi = 0.495*[#   3]+0.495*[#   4]+0.495*[#   5]+0.014*[#   6]+0.014*[#   7]
          +0.014*[#   8]
    |psi|^2 = 1.530
==== e(   4) =   -33.51667 eV ==== 
     psi = 0.179*[#   3]+0.179*[#   4]+0.179*[#   5]+0.008*[#   6]+0.008*[#   7]
          +0.008*[#   8]+0.001*[#   2]
    |psi|^2 = 0.564
==== e(   5) =    14.77517 eV ==== 
     psi = 0.160*[#   2]+0.139*[#  10]+0.139*[#  11]+0.139*[#  13]+0.109*[#   9]
          +0.109*[#  12]+0.059*[#   6]+0.059*[#   7]+0.059*[#   8]+0.015*[#   1]
          +0.004*[#   3]+0.004*[#   4]+0.004*[#   5]
    |psi|^2 = 0.998
==== e(   6) =    16.51781 eV ==== 
     psi = 0.316*[#  10]+0.316*[#  11]+0.316*[#  13]+0.020*[#   9]+0.020*[#  12]
          +0.009*[#   6]+0.009*[#   7]+0.009*[#   8]
    |psi|^2 = 1.018
==== e(   7) =    17.62092 eV ==== 
     psi = 0.203*[#   9]+0.203*[#  12]+0.080*[#  10]+0.080*[#  11]+0.080*[#  13]
          +0.041*[#   6]+0.041*[#   7]+0.041*[#   8]+0.026*[#   2]+0.010*[#   1]
          +0.002*[#   3]+0.002*[#   4]+0.002*[#   5]
    |psi|^2 = 0.812
==== e(   8) =    18.94057 eV ==== 
     psi = 0.279*[#   9]+0.279*[#  12]+0.143*[#  10]+0.143*[#  11]+0.143*[#  13]
          +0.003*[#   6]+0.003*[#   7]+0.003*[#   8]
    |psi|^2 = 0.996
==== e(   9) =    19.58355 eV ==== 
     psi = 0.329*[#   9]+0.329*[#  12]+0.093*[#  10]+0.093*[#  11]+0.093*[#  13]
          +0.015*[#   6]+0.015*[#   7]+0.015*[#   8]+0.014*[#   2]+0.002*[#   1]
          
    |psi|^2 = 0.999
==== e(  10) =    20.91484 eV ==== 
     psi = 0.206*[#  10]+0.206*[#  11]+0.206*[#  13]+0.053*[#   9]+0.053*[#  12]
          +0.035*[#   2]+0.029*[#   6]+0.029*[#   7]+0.029*[#   8]+0.006*[#   1]
          +0.001*[#   3]+0.001*[#   4]+0.001*[#   5]
    |psi|^2 = 0.856
==== e(  11) =    31.35462 eV ==== 
     psi = 0.539*[#   2]+0.142*[#   6]+0.142*[#   7]+0.142*[#   8]+0.030*[#   1]
          +0.016*[#  10]+0.016*[#  11]+0.016*[#  13]+0.006*[#   9]+0.006*[#  12]
          +0.002*[#   3]+0.002*[#   4]+0.002*[#   5]
    |psi|^2 = 1.060
==== e(  12) =    37.46288 eV ==== 
     psi = 0.133*[#   6]+0.133*[#   7]+0.133*[#   8]+0.132*[#   2]+0.014*[#   1]
          +0.003*[#   3]+0.003*[#   4]+0.003*[#   5]+0.002*[#  10]+0.002*[#  11]
          +0.002*[#  13]
    |psi|^2 = 0.565

 k =  -0.1000000000 -0.3500000000  0.5000000000
==== e(   1) =   -67.27911 eV ==== 
     psi = 0.954*[#   1]+0.014*[#   2]+0.009*[#   6]+0.009*[#   7]+0.009*[#   8]
          +0.002*[#  10]+0.002*[#  11]+0.002*[#  13]
    |psi|^2 = 1.000
==== e(   2) =   -34.01414 eV ==== 
     psi = 0.154*[#   3]+0.154*[#   4]+0.154*[#   5]+0.005*[#   6]+0.005*[#   7]
          +0.005*[#   8]+0.004*[#   2]
    |psi|^2 = 0.483
==== e(   3) =   -33.68876 eV ==== 
     psi = 0.493*[#   3]+0.493*[#   4]+0.493*[#   5]+0.012*[#   6]+0.012*[#   7]
          +0.012*[#   8]
    |psi|^2 = 1.517
==== e(   4) =   -33.51720 eV ==== 
     psi = 0.171*[#   3]+0.171*[#   4]+0.171*[#   5]+0.007*[#   6]+0.007*[#   7]
          +0.007*[#   8]
    |psi|^2 = 0.538
==== e(   5) =    14.82888 eV ==== 
     psi = 0.166*[#  10]+0.166*[#  11]+0.166*[#  13]+0.144*[#   9]+0.144*[#  12]
          +0.129*[#   2]+0.024*[#   6]+0.024*[#   7]+0.024*[#   8]+0.005*[#   1]
          +0.001*[#   3]+0.001*[#   4]+0.001*[#   5]
    |psi|^2 = 0.998
==== e(   6) =    16.42561 eV ==== 
     psi = 0.323*[#  10]+0.323*[#  11]+0.323*[#  13]+0.010*[#   9]+0.010*[#  12]
          +0.008*[#   6]+0.008*[#   7]+0.008*[#   8]
    |psi|^2 = 1.014
==== e(   7) =    17.98084 eV ==== 
     psi = 0.267*[#   9]+0.267*[#  12]+0.046*[#  10]+0.046*[#  11]+0.046*[#  13]
          +0.042*[#   6]+0.042*[#   7]+0.042*[#   8]+0.016*[#   2]+0.003*[#   1]
          +0.002*[#   3]+0.002*[#   4]+0.002*[#   5]
    |psi|^2 = 0.825
==== e(   8) =    19.01203 eV ==== 
     psi = 0.302*[#   9]+0.302*[#  12]+0.128*[#  10]+0.128*[#  11]+0.128*[#  13]
          +0.004*[#   2]+0.003*[#   6]+0.003*[#   7]+0.003*[#   8]
    |psi|^2 = 1.000
==== e(   9) =    19.82120 eV ==== 
     psi = 0.217*[#   9]+0.217*[#  12]+0.155*[#  10]+0.155*[#  11]+0.155*[#  13]
          +0.029*[#   6]+0.029*[#   7]+0.029*[#   8]+0.010*[#   2]+0.001*[#   3]
          +0.001*[#   4]+0.001*[#   5]
    |psi|^2 = 0.999
==== e(  10) =    21.68760 eV ==== 
     psi = 0.149*[#  10]+0.149*[#  11]+0.149*[#  13]+0.054*[#   6]+0.054*[#   7]
          +0.054*[#   8]+0.050*[#   9]+0.050*[#  12]+0.042*[#   2]+0.002*[#   1]
          +0.002*[#   3]+0.002*[#   4]+0.002*[#   5]
    |psi|^2 = 0.756
==== e(  11) =    29.53096 eV ==== 
     psi = 0.617*[#   2]+0.153*[#   6]+0.153*[#   7]+0.153*[#   8]+0.026*[#  10]
          +0.026*[#  11]+0.026*[#  13]+0.020*[#   1]+0.008*[#   9]+0.008*[#  12]
          +0.002*[#   3]+0.002*[#   4]+0.002*[#   5]
    |psi|^2 = 1.197
==== e(  12) =    37.00291 eV ==== 
     psi = 0.151*[#   6]+0.151*[#   7]+0.151*[#   8]+0.109*[#   2]+0.010*[#   1]
          +0.004*[#   3]+0.004*[#   4]+0.004*[#   5]+0.002*[#  10]+0.002*[#  11]
          +0.002*[#  13]+0.001*[#   9]+0.001*[#  12]
    |psi|^2 = 0.590

 k =  -0.1000000000  0.6000000000 -0.4500000000
==== e(   1) =   -67.27360 eV ==== 
     psi = 0.971*[#   1]+0.015*[#   2]+0.002*[#  10]+0.002*[#  11]+0.002*[#  13]
          +0.002*[#   6]+0.002*[#   7]+0.002*[#   8]
    |psi|^2 = 1.000
==== e(   2) =   -34.03747 eV ==== 
     psi = 0.160*[#   3]+0.160*[#   4]+0.160*[#   5]+0.004*[#   6]+0.004*[#   7]
          +0.004*[#   8]
    |psi|^2 = 0.494
==== e(   3) =   -33.69970 eV ==== 
     psi = 0.488*[#   3]+0.488*[#   4]+0.488*[#   5]+0.011*[#   6]+0.011*[#   7]
          +0.011*[#   8]
    |psi|^2 = 1.499
==== e(   4) =   -33.51714 eV ==== 
     psi = 0.166*[#   3]+0.166*[#   4]+0.166*[#   5]+0.006*[#   6]+0.006*[#   7]
          +0.006*[#   8]
    |psi|^2 = 0.520
==== e(   5) =    14.82180 eV ==== 
     psi = 0.176*[#  10]+0.176*[#  11]+0.176*[#  13]+0.161*[#   9]+0.161*[#  12]
          +0.114*[#   2]+0.010*[#   6]+0.010*[#   7]+0.010*[#   8]+0.002*[#   1]
          
    |psi|^2 = 0.999
==== e(   6) =    16.37820 eV ==== 
     psi = 0.326*[#  10]+0.326*[#  11]+0.326*[#  13]+0.007*[#   6]+0.007*[#   7]
          +0.007*[#   8]+0.006*[#   9]+0.006*[#  12]
    |psi|^2 = 1.012
==== e(   7) =    18.18287 eV ==== 
     psi = 0.307*[#   9]+0.307*[#  12]+0.042*[#   6]+0.042*[#   7]+0.042*[#   8]
          +0.036*[#  10]+0.036*[#  11]+0.036*[#  13]+0.002*[#   2]+0.002*[#   3]
          +0.002*[#   4]+0.002*[#   5]
    |psi|^2 = 0.857
==== e(   8) =    19.02404 eV ==== 
     psi = 0.317*[#   9]+0.317*[#  12]+0.119*[#  10]+0.119*[#  11]+0.119*[#  13]
          +0.008*[#   2]+0.001*[#   6]+0.001*[#   7]+0.001*[#   8]
    |psi|^2 = 1.003
==== e(   9) =    20.00746 eV ==== 
     psi = 0.195*[#  10]+0.195*[#  11]+0.195*[#  13]+0.152*[#   9]+0.152*[#  12]
          +0.035*[#   6]+0.035*[#   7]+0.035*[#   8]+0.002*[#   2]+0.001*[#   3]
          +0.001*[#   4]+0.001*[#   5]
    |psi|^2 = 0.999
==== e(  10) =    22.32187 eV ==== 
     psi = 0.104*[#  10]+0.104*[#  11]+0.104*[#  13]+0.089*[#   6]+0.089*[#   7]
          +0.089*[#   8]+0.044*[#   9]+0.044*[#  12]+0.010*[#   2]+0.002*[#   3]
          +0.002*[#   4]+0.002*[#   5]
    |psi|^2 = 0.681
==== e(  11) =    28.35157 eV ==== 
     psi = 0.705*[#   2]+0.143*[#   6]+0.143*[#   7]+0.143*[#   8]+0.037*[#  10]
          +0.037*[#  11]+0.037*[#  13]+0.015*[#   1]+0.011*[#   9]+0.011*[#  12]
          +0.002*[#   3]+0.002*[#   4]+0.002*[#   5]
    |psi|^2 = 1.286
==== e(  12) =    36.76355 eV ==== 
     psi = 0.159*[#   6]+0.159*[#   7]+0.159*[#   8]+0.096*[#   2]+0.008*[#   1]
          +0.003*[#   3]+0.003*[#   4]+0.003*[#   5]+0.002*[#  10]+0.002*[#  11]
          +0.002*[#  13]+0.001*[#   9]+0.001*[#  12]
    |psi|^2 = 0.597

 k =  -0.1500000000  0.1500000000  0.0500000000
==== e(   1) =   -67.37246 eV ==== 
     psi = 0.766*[#   1]+0.078*[#   6]+0.078*[#   7]+0.078*[#   8]
    |psi|^2 = 1.000
==== e(   2) =   -33.61668 eV ==== 
     psi = 0.297*[#   3]+0.297*[#   4]+0.297*[#   5]+0.037*[#   6]+0.037*[#   7]
          +0.037*[#   8]+0.025*[#   2]
    |psi|^2 = 1.028
==== e(   3) =   -33.52184 eV ==== 
     psi = 0.055*[#   3]+0.055*[#   4]+0.055*[#   5]
    |psi|^2 = 0.167
==== e(   4) =   -33.48868 eV ==== 
     psi = 0.473*[#   3]+0.473*[#   4]+0.473*[#   5]+0.009*[#   6]+0.009*[#   7]
          +0.009*[#   8]
    |psi|^2 = 1.446
==== e(   5) =    11.86375 eV ==== 
     psi = 0.453*[#   2]+0.131*[#   6]+0.131*[#   7]+0.131*[#   8]+0.130*[#   1]
          +0.004*[#   3]+0.004*[#   4]+0.004*[#   5]+0.002*[#  10]+0.002*[#  11]
          +0.002*[#  13]
    |psi|^2 = 0.997
==== e(   6) =    17.23358 eV ==== 
     psi = 0.331*[#  10]+0.331*[#  11]+0.331*[#  13]+0.062*[#   6]+0.062*[#   7]
          +0.062*[#   8]+0.002*[#   9]+0.002*[#  12]+0.002*[#   3]+0.002*[#   4]
          +0.002*[#   5]
    |psi|^2 = 1.191
==== e(   7) =    17.40256 eV ==== 
     psi = 0.314*[#  10]+0.314*[#  11]+0.314*[#  13]+0.025*[#   9]+0.025*[#  12]
          +0.002*[#   6]+0.002*[#   7]+0.002*[#   8]
    |psi|^2 = 0.998
==== e(   8) =    18.15521 eV ==== 
     psi = 0.331*[#  10]+0.331*[#  11]+0.331*[#  13]
    |psi|^2 = 0.998
==== e(   9) =    18.87961 eV ==== 
     psi = 0.473*[#   9]+0.473*[#  12]+0.017*[#  10]+0.017*[#  11]+0.017*[#  13]
          
    |psi|^2 = 0.999
==== e(  10) =    19.09134 eV ==== 
     psi = 0.497*[#   9]+0.497*[#  12]+0.002*[#  10]+0.002*[#  11]+0.002*[#  13]
          
    |psi|^2 = 1.000
==== e(  11) =    41.32358 eV ==== 
     psi = 0.051*[#   2]+0.013*[#   6]+0.013*[#   7]+0.013*[#   8]+0.009*[#   1]
          
    |psi|^2 = 0.104
==== e(  12) =    43.45755 eV ==== 
     psi = 0.013*[#   6]+0.013*[#   7]+0.013*[#   8]
    |psi|^2 = 0.040

 k =  -0.1500000000  0.1000000000  0.1000000000
==== e(   1) =   -67.37501 eV ==== 
     psi = 0.767*[#   1]+0.077*[#   6]+0.077*[#   7]+0.077*[#   8]
    |psi|^2 = 1.000
==== e(   2) =   -33.60699 eV ==== 
     psi = 0.234*[#   3]+0.234*[#   4]+0.234*[#   5]+0.041*[#   6]+0.041*[#   7]
          +0.041*[#   8]+0.025*[#   2]
    |psi|^2 = 0.849
==== e(   3) =   -33.50756 eV ==== 
     psi = 0.253*[#   3]+0.253*[#   4]+0.253*[#   5]+0.005*[#   6]+0.005*[#   7]
          +0.005*[#   8]
    |psi|^2 = 0.773
==== e(   4) =   -33.49508 eV ==== 
     psi = 0.396*[#   3]+0.396*[#   4]+0.396*[#   5]+0.007*[#   6]+0.007*[#   7]
          +0.007*[#   8]
    |psi|^2 = 1.208
==== e(   5) =    11.76250 eV ==== 
     psi = 0.474*[#   2]+0.130*[#   1]+0.125*[#   6]+0.125*[#   7]+0.125*[#   8]
          +0.004*[#   3]+0.004*[#   4]+0.004*[#   5]+0.002*[#  10]+0.002*[#  11]
          +0.002*[#  13]
    |psi|^2 = 0.997
==== e(   6) =    17.28987 eV ==== 
     psi = 0.328*[#  10]+0.328*[#  11]+0.328*[#  13]+0.066*[#   6]+0.066*[#   7]
          +0.066*[#   8]+0.006*[#   9]+0.006*[#  12]+0.002*[#   3]+0.002*[#   4]
          +0.002*[#   5]
    |psi|^2 = 1.203
==== e(   7) =    17.34339 eV ==== 
     psi = 0.322*[#  10]+0.322*[#  11]+0.322*[#  13]+0.015*[#   9]+0.015*[#  12]
          
    |psi|^2 = 0.998
==== e(   8) =    18.13442 eV ==== 
     psi = 0.331*[#  10]+0.331*[#  11]+0.331*[#  13]+0.001*[#   6]+0.001*[#   7]
          +0.001*[#   8]
    |psi|^2 = 0.998
==== e(   9) =    18.91254 eV ==== 
     psi = 0.484*[#   9]+0.484*[#  12]+0.010*[#  10]+0.010*[#  11]+0.010*[#  13]
          
    |psi|^2 = 0.999
==== e(  10) =    19.07186 eV ==== 
     psi = 0.493*[#   9]+0.493*[#  12]+0.004*[#  10]+0.004*[#  11]+0.004*[#  13]
          
    |psi|^2 = 0.999
==== e(  11) =    42.09360 eV ==== 
     psi = 0.005*[#   6]+0.005*[#   7]+0.005*[#   8]
    |psi|^2 = 0.016
==== e(  12) =    42.90021 eV ==== 
     psi = 0.018*[#   2]+0.011*[#   6]+0.011*[#   7]+0.011*[#   8]+0.003*[#   1]
          
    |psi|^2 = 0.057

 k =  -0.1500000000 -0.1500000000  0.3500000000
==== e(   1) =   -67.32226 eV ==== 
     psi = 0.809*[#   1]+0.060*[#   6]+0.060*[#   7]+0.060*[#   8]+0.011*[#   2]
          
    |psi|^2 = 1.000
==== e(   2) =   -33.82204 eV ==== 
     psi = 0.143*[#   3]+0.143*[#   4]+0.143*[#   5]+0.021*[#   2]+0.008*[#   6]
          +0.008*[#   7]+0.008*[#   8]
    |psi|^2 = 0.476
==== e(   3) =   -33.60281 eV ==== 
     psi = 0.503*[#   3]+0.503*[#   4]+0.503*[#   5]+0.012*[#   6]+0.012*[#   7]
          +0.012*[#   8]
    |psi|^2 = 1.547
==== e(   4) =   -33.52340 eV ==== 
     psi = 0.249*[#   3]+0.249*[#   4]+0.249*[#   5]+0.011*[#   6]+0.011*[#   7]
          +0.011*[#   8]+0.001*[#   2]
    |psi|^2 = 0.782
==== e(   5) =    13.94736 eV ==== 
     psi = 0.250*[#   2]+0.165*[#   6]+0.165*[#   7]+0.165*[#   8]+0.083*[#   1]
          +0.032*[#  10]+0.032*[#  11]+0.032*[#  13]+0.022*[#   9]+0.022*[#  12]
          +0.010*[#   3]+0.010*[#   4]+0.010*[#   5]
    |psi|^2 = 0.996
==== e(   6) =    16.87488 eV ==== 
     psi = 0.232*[#  10]+0.232*[#  11]+0.232*[#  13]+0.142*[#   9]+0.142*[#  12]
          +0.028*[#   6]+0.028*[#   7]+0.028*[#   8]+0.002*[#   3]+0.002*[#   4]
          +0.002*[#   5]
    |psi|^2 = 1.066
==== e(   7) =    17.02819 eV ==== 
     psi = 0.315*[#  10]+0.315*[#  11]+0.315*[#  13]+0.005*[#   1]+0.003*[#   6]
          +0.003*[#   7]+0.003*[#   8]+0.003*[#   2]+0.001*[#   9]+0.001*[#  12]
          
    |psi|^2 = 0.966
==== e(   8) =    18.61182 eV ==== 
     psi = 0.354*[#   9]+0.354*[#  12]+0.097*[#  10]+0.097*[#  11]+0.097*[#  13]
          +0.003*[#   6]+0.003*[#   7]+0.003*[#   8]
    |psi|^2 = 1.008
==== e(   9) =    19.31180 eV ==== 
     psi = 0.301*[#   9]+0.301*[#  12]+0.131*[#  10]+0.131*[#  11]+0.131*[#  13]
          +0.002*[#   2]
    |psi|^2 = 1.000
==== e(  10) =    19.63655 eV ==== 
     psi = 0.184*[#  10]+0.184*[#  11]+0.184*[#  13]+0.176*[#   9]+0.176*[#  12]
          +0.014*[#   2]+0.009*[#   6]+0.009*[#   7]+0.009*[#   8]+0.008*[#   1]
          
    |psi|^2 = 0.953
==== e(  11) =    36.74838 eV ==== 
     psi = 0.182*[#   6]+0.182*[#   7]+0.182*[#   8]+0.005*[#   3]+0.005*[#   4]
          +0.005*[#   5]+0.004*[#   9]+0.004*[#  12]+0.003*[#  10]+0.003*[#  11]
          +0.003*[#  13]
    |psi|^2 = 0.576
==== e(  12) =    37.91671 eV ==== 
     psi = 0.508*[#   2]+0.067*[#   1]+0.017*[#   6]+0.017*[#   7]+0.017*[#   8]
          +0.003*[#  10]+0.003*[#  11]+0.003*[#  13]
    |psi|^2 = 0.637

 k =  -0.1500000000 -0.2000000000  0.4000000000
==== e(   1) =   -67.30591 eV ==== 
     psi = 0.853*[#   1]+0.044*[#   6]+0.044*[#   7]+0.044*[#   8]+0.013*[#   2]
          
    |psi|^2 = 1.000
==== e(   2) =   -33.88450 eV ==== 
     psi = 0.143*[#   3]+0.143*[#   4]+0.143*[#   5]+0.016*[#   2]+0.006*[#   6]
          +0.006*[#   7]+0.006*[#   8]
    |psi|^2 = 0.464
==== e(   3) =   -33.63852 eV ==== 
     psi = 0.504*[#   3]+0.504*[#   4]+0.504*[#   5]+0.012*[#   6]+0.012*[#   7]
          +0.012*[#   8]
    |psi|^2 = 1.550
==== e(   4) =   -33.52916 eV ==== 
     psi = 0.226*[#   3]+0.226*[#   4]+0.226*[#   5]+0.011*[#   6]+0.011*[#   7]
          +0.011*[#   8]+0.001*[#   2]
    |psi|^2 = 0.711
==== e(   5) =    14.57904 eV ==== 
     psi = 0.208*[#   2]+0.140*[#   6]+0.140*[#   7]+0.140*[#   8]+0.068*[#  10]
          +0.068*[#  11]+0.068*[#  13]+0.051*[#   1]+0.043*[#   9]+0.043*[#  12]
          +0.009*[#   3]+0.009*[#   4]+0.009*[#   5]
    |psi|^2 = 0.997
==== e(   6) =    16.67100 eV ==== 
     psi = 0.224*[#  10]+0.224*[#  11]+0.224*[#  13]+0.148*[#   9]+0.148*[#  12]
          +0.026*[#   6]+0.026*[#   7]+0.026*[#   8]+0.001*[#   3]+0.001*[#   4]
          +0.001*[#   5]
    |psi|^2 = 1.049
==== e(   7) =    17.03416 eV ==== 
     psi = 0.274*[#  10]+0.274*[#  11]+0.274*[#  13]+0.028*[#   9]+0.028*[#  12]
          +0.010*[#   6]+0.010*[#   7]+0.010*[#   8]+0.008*[#   2]+0.008*[#   1]
          
    |psi|^2 = 0.925
==== e(   8) =    18.68757 eV ==== 
     psi = 0.316*[#   9]+0.316*[#  12]+0.122*[#  10]+0.122*[#  11]+0.122*[#  13]
          +0.004*[#   6]+0.004*[#   7]+0.004*[#   8]
    |psi|^2 = 1.011
==== e(   9) =    19.41697 eV ==== 
     psi = 0.383*[#   9]+0.383*[#  12]+0.074*[#  10]+0.074*[#  11]+0.074*[#  13]
          +0.007*[#   2]+0.002*[#   6]+0.002*[#   7]+0.002*[#   8]
    |psi|^2 = 1.000
==== e(  10) =    20.29365 eV ==== 
     psi = 0.224*[#  10]+0.224*[#  11]+0.224*[#  13]+0.076*[#   9]+0.076*[#  12]
          +0.024*[#   2]+0.017*[#   6]+0.017*[#   7]+0.017*[#   8]+0.009*[#   1]
          
    |psi|^2 = 0.909
==== e(  11) =    34.80680 eV ==== 
     psi = 0.203*[#   6]+0.203*[#   7]+0.203*[#   8]+0.198*[#   2]+0.019*[#   1]
          +0.007*[#  10]+0.007*[#  11]+0.007*[#  13]+0.005*[#   9]+0.005*[#  12]
          +0.004*[#   3]+0.004*[#   4]+0.004*[#   5]
    |psi|^2 = 0.866
==== e(  12) =    36.65048 eV ==== 
     psi = 0.403*[#   2]+0.077*[#   6]+0.077*[#   7]+0.077*[#   8]+0.045*[#   1]
          +0.004*[#  10]+0.004*[#  11]+0.004*[#  13]+0.002*[#   3]+0.002*[#   4]
          +0.002*[#   5]
    |psi|^2 = 0.698

 k =  -0.1500000000 -0.2500000000  0.4500000000
==== e(   1) =   -67.29112 eV ==== 
     psi = 0.902*[#   1]+0.027*[#   6]+0.027*[#   7]+0.027*[#   8]+0.014*[#   2]
          
    |psi|^2 = 1.000
==== e(   2) =   -33.93854 eV ==== 
     psi = 0.144*[#   3]+0.144*[#   4]+0.144*[#   5]+0.011*[#   2]+0.005*[#   6]
          +0.005*[#   7]+0.005*[#   8]
    |psi|^2 = 0.460
==== e(   3) =   -33.67429 eV ==== 
     psi = 0.504*[#   3]+0.504*[#   4]+0.504*[#   5]+0.011*[#   6]+0.011*[#   7]
          +0.011*[#   8]+0.001*[#  10]+0.001*[#  11]+0.001*[#  13]
    |psi|^2 = 1.548
==== e(   4) =   -33.53212 eV ==== 
     psi = 0.206*[#   3]+0.206*[#   4]+0.206*[#   5]+0.010*[#   6]+0.010*[#   7]
          +0.010*[#   8]
    |psi|^2 = 0.648
==== e(   5) =    14.98202 eV ==== 
     psi = 0.163*[#   2]+0.123*[#  10]+0.123*[#  11]+0.123*[#  13]+0.088*[#   6]
          +0.088*[#   7]+0.088*[#   8]+0.081*[#   9]+0.081*[#  12]+0.021*[#   1]
          +0.006*[#   3]+0.006*[#   4]+0.006*[#   5]
    |psi|^2 = 0.997
==== e(   6) =    16.53626 eV ==== 
     psi = 0.248*[#  10]+0.248*[#  11]+0.248*[#  13]+0.109*[#   9]+0.109*[#  12]
          +0.023*[#   6]+0.023*[#   7]+0.023*[#   8]
    |psi|^2 = 1.037
==== e(   7) =    17.17422 eV ==== 
     psi = 0.188*[#  10]+0.188*[#  11]+0.188*[#  13]+0.098*[#   9]+0.098*[#  12]
          +0.023*[#   6]+0.023*[#   7]+0.023*[#   8]+0.018*[#   2]+0.008*[#   1]
          +0.001*[#   3]+0.001*[#   4]+0.001*[#   5]
    |psi|^2 = 0.860
==== e(   8) =    18.81675 eV ==== 
     psi = 0.287*[#   9]+0.287*[#  12]+0.140*[#  10]+0.140*[#  11]+0.140*[#  13]
          +0.004*[#   6]+0.004*[#   7]+0.004*[#   8]
    |psi|^2 = 1.009
==== e(   9) =    19.51166 eV ==== 
     psi = 0.355*[#   9]+0.355*[#  12]+0.087*[#  10]+0.087*[#  11]+0.087*[#  13]
          +0.012*[#   2]+0.006*[#   6]+0.006*[#   7]+0.006*[#   8]+0.001*[#   1]
          
    |psi|^2 = 1.000
==== e(  10) =    21.09858 eV ==== 
     psi = 0.193*[#  10]+0.193*[#  11]+0.193*[#  13]+0.061*[#   9]+0.061*[#  12]
          +0.045*[#   2]+0.027*[#   6]+0.027*[#   7]+0.027*[#   8]+0.007*[#   1]
          +0.001*[#   3]+0.001*[#   4]+0.001*[#   5]
    |psi|^2 = 0.841
==== e(  11) =    32.62650 eV ==== 
     psi = 0.359*[#   2]+0.203*[#   6]+0.203*[#   7]+0.203*[#   8]+0.023*[#   1]
          +0.012*[#  10]+0.012*[#  11]+0.012*[#  13]+0.006*[#   9]+0.006*[#  12]
          +0.003*[#   3]+0.003*[#   4]+0.003*[#   5]
    |psi|^2 = 1.049
==== e(  12) =    35.85939 eV ==== 
     psi = 0.295*[#   2]+0.132*[#   6]+0.132*[#   7]+0.132*[#   8]+0.028*[#   1]
          +0.004*[#  10]+0.004*[#  11]+0.004*[#  13]+0.002*[#   3]+0.002*[#   4]
          +0.002*[#   5]+0.002*[#   9]+0.002*[#  12]
    |psi|^2 = 0.744

 k =  -0.1500000000 -0.3000000000  0.5000000000
==== e(   1) =   -67.27937 eV ==== 
     psi = 0.943*[#   1]+0.015*[#   2]+0.012*[#   6]+0.012*[#   7]+0.012*[#   8]
          +0.001*[#  10]+0.001*[#  11]+0.001*[#  13]
    |psi|^2 = 1.000
==== e(   2) =   -33.98067 eV ==== 
     psi = 0.148*[#   3]+0.148*[#   4]+0.148*[#   5]+0.006*[#   2]+0.004*[#   6]
          +0.004*[#   7]+0.004*[#   8]
    |psi|^2 = 0.463
==== e(   3) =   -33.70425 eV ==== 
     psi = 0.502*[#   3]+0.502*[#   4]+0.502*[#   5]+0.009*[#   6]+0.009*[#   7]
          +0.009*[#   8]+0.001*[#  10]+0.001*[#  11]+0.001*[#  13]
    |psi|^2 = 1.536
==== e(   4) =   -33.53378 eV ==== 
     psi = 0.190*[#   3]+0.190*[#   4]+0.190*[#   5]+0.008*[#   6]+0.008*[#   7]
          +0.008*[#   8]
    |psi|^2 = 0.595
==== e(   5) =    15.11192 eV ==== 
     psi = 0.163*[#  10]+0.163*[#  11]+0.163*[#  13]+0.123*[#   9]+0.123*[#  12]
          +0.123*[#   2]+0.042*[#   6]+0.042*[#   7]+0.042*[#   8]+0.007*[#   1]
          +0.002*[#   3]+0.002*[#   4]+0.002*[#   5]
    |psi|^2 = 0.998
==== e(   6) =    16.46577 eV ==== 
     psi = 0.284*[#  10]+0.284*[#  11]+0.284*[#  13]+0.059*[#   9]+0.059*[#  12]
          +0.019*[#   6]+0.019*[#   7]+0.019*[#   8]+0.001*[#   2]
    |psi|^2 = 1.032
==== e(   7) =    17.42209 eV ==== 
     psi = 0.187*[#   9]+0.187*[#  12]+0.109*[#  10]+0.109*[#  11]+0.109*[#  13]
          +0.034*[#   6]+0.034*[#   7]+0.034*[#   8]+0.019*[#   2]+0.004*[#   1]
          +0.002*[#   3]+0.002*[#   4]+0.002*[#   5]
    |psi|^2 = 0.830
==== e(   8) =    18.93991 eV ==== 
     psi = 0.285*[#   9]+0.285*[#  12]+0.141*[#  10]+0.141*[#  11]+0.141*[#  13]
          +0.004*[#   6]+0.004*[#   7]+0.004*[#   8]+0.002*[#   2]
    |psi|^2 = 1.008
==== e(   9) =    19.64887 eV ==== 
     psi = 0.281*[#   9]+0.281*[#  12]+0.129*[#  10]+0.129*[#  11]+0.129*[#  13]
          +0.012*[#   2]+0.012*[#   6]+0.012*[#   7]+0.012*[#   8]
    |psi|^2 = 1.000
==== e(  10) =    22.02789 eV ==== 
     psi = 0.146*[#  10]+0.146*[#  11]+0.146*[#  13]+0.066*[#   2]+0.053*[#   9]
          +0.053*[#  12]+0.044*[#   6]+0.044*[#   7]+0.044*[#   8]+0.003*[#   1]
          +0.001*[#   3]+0.001*[#   4]+0.001*[#   5]
    |psi|^2 = 0.750
==== e(  11) =    30.59132 eV ==== 
     psi = 0.460*[#   2]+0.209*[#   6]+0.209*[#   7]+0.209*[#   8]+0.020*[#  10]
          +0.020*[#  11]+0.020*[#  13]+0.019*[#   1]+0.008*[#   9]+0.008*[#  12]
          +0.002*[#   3]+0.002*[#   4]+0.002*[#   5]
    |psi|^2 = 1.188
==== e(  12) =    35.29216 eV ==== 
     psi = 0.235*[#   2]+0.162*[#   6]+0.162*[#   7]+0.162*[#   8]+0.019*[#   1]
          +0.004*[#  10]+0.004*[#  11]+0.004*[#  13]+0.002*[#   3]+0.002*[#   4]
          +0.002*[#   5]+0.002*[#   9]+0.002*[#  12]
    |psi|^2 = 0.765

 k =  -0.1500000000  0.6500000000 -0.4500000000
==== e(   1) =   -67.27184 eV ==== 
     psi = 0.965*[#   1]+0.017*[#   2]+0.004*[#   6]+0.004*[#   7]+0.004*[#   8]
          +0.002*[#  10]+0.002*[#  11]+0.002*[#  13]
[...]
    |psi|^2 = 0.972

 k =  -0.1000000000  0.9000000000 -0.1500000000
==== e(   1) =   -64.91615 eV ==== 
     psi = 0.923*[#   1]+0.063*[#   2]+0.005*[#   6]+0.005*[#   7]+0.005*[#   8]
          
    |psi|^2 = 1.000
==== e(   2) =   -31.71189 eV ==== 
     psi = 0.114*[#   3]+0.114*[#   4]+0.114*[#   5]+0.001*[#   6]+0.001*[#   7]
          +0.001*[#   8]
    |psi|^2 = 0.347
==== e(   3) =   -31.68374 eV ==== 
     psi = 0.551*[#   3]+0.551*[#   4]+0.551*[#   5]
    |psi|^2 = 1.657
==== e(   4) =   -31.58897 eV ==== 
     psi = 0.274*[#   3]+0.274*[#   4]+0.274*[#   5]+0.002*[#   2]+0.001*[#   6]
          +0.001*[#   7]+0.001*[#   8]
    |psi|^2 = 0.831
==== e(   5) =    16.50519 eV ==== 
     psi = 0.448*[#   9]+0.448*[#  12]+0.029*[#   6]+0.029*[#   7]+0.029*[#   8]
          +0.002*[#  10]+0.002*[#  11]+0.002*[#  13]
    |psi|^2 = 0.992
==== e(   6) =    16.51540 eV ==== 
     psi = 0.463*[#   9]+0.463*[#  12]+0.021*[#   6]+0.021*[#   7]+0.021*[#   8]
          +0.002*[#  10]+0.002*[#  11]+0.002*[#  13]
    |psi|^2 = 0.997
==== e(   7) =    20.68823 eV ==== 
     psi = 0.316*[#  10]+0.316*[#  11]+0.316*[#  13]+0.010*[#   2]+0.010*[#   6]
          +0.010*[#   7]+0.010*[#   8]
    |psi|^2 = 0.989
==== e(   8) =    21.73766 eV ==== 
     psi = 0.320*[#  10]+0.320*[#  11]+0.320*[#  13]+0.017*[#   6]+0.017*[#   7]
          +0.017*[#   8]+0.007*[#   9]+0.007*[#  12]
    |psi|^2 = 1.026
==== e(   9) =    22.06772 eV ==== 
     psi = 0.326*[#  10]+0.326*[#  11]+0.326*[#  13]+0.005*[#   9]+0.005*[#  12]
          +0.003*[#   6]+0.003*[#   7]+0.003*[#   8]
    |psi|^2 = 0.999
==== e(  10) =    29.18173 eV ==== 
     psi = 0.049*[#   2]+0.039*[#   9]+0.039*[#  12]+0.028*[#   6]+0.028*[#   7]
          +0.028*[#   8]+0.007*[#  10]+0.007*[#  11]+0.007*[#  13]
    |psi|^2 = 0.232
==== e(  11) =    30.71910 eV ==== 
     psi = 0.557*[#   6]+0.557*[#   7]+0.557*[#   8]+0.023*[#   9]+0.023*[#  12]
          +0.010*[#  10]+0.010*[#  11]+0.010*[#  13]
    |psi|^2 = 1.751
==== e(  12) =    31.32693 eV ==== 
     psi = 0.248*[#   6]+0.248*[#   7]+0.248*[#   8]+0.188*[#   2]+0.015*[#  10]
          +0.015*[#  11]+0.015*[#  13]+0.002*[#   9]+0.002*[#  12]
    |psi|^2 = 0.984

 k =   0.0000000000  0.0000000000  0.7500000000
==== e(   1) =   -64.92623 eV ==== 
     psi = 0.928*[#   1]+0.054*[#   2]+0.006*[#   6]+0.006*[#   7]+0.006*[#   8]
          
    |psi|^2 = 1.000
==== e(   2) =   -31.68116 eV ==== 
     psi = 0.006*[#   2]+0.001*[#   9]+0.001*[#  12]
    |psi|^2 = 0.009
==== e(   3) =   -31.62393 eV ==== 
     psi = 0.661*[#   3]+0.661*[#   4]+0.661*[#   5]+0.002*[#   6]+0.002*[#   7]
          +0.002*[#   8]
    |psi|^2 = 1.991
==== e(   4) =   -31.62393 eV ==== 
     psi = 0.331*[#   3]+0.331*[#   4]+0.331*[#   5]+0.001*[#   6]+0.001*[#   7]
          +0.001*[#   8]
    |psi|^2 = 1.000
==== e(   5) =    16.51913 eV ==== 
     psi = 0.404*[#   9]+0.404*[#  12]+0.055*[#   6]+0.055*[#   7]+0.055*[#   8]
          +0.017*[#   2]+0.002*[#   3]+0.002*[#   4]+0.002*[#   5]+0.001*[#   1]
          
    |psi|^2 = 0.997
==== e(   6) =    16.77272 eV ==== 
     psi = 0.490*[#   9]+0.490*[#  12]
    |psi|^2 = 0.981
==== e(   7) =    21.01771 eV ==== 
     psi = 0.318*[#  10]+0.318*[#  11]+0.318*[#  13]+0.014*[#   6]+0.014*[#   7]
          +0.014*[#   8]
    |psi|^2 = 0.999
==== e(   8) =    21.01771 eV ==== 
     psi = 0.318*[#  10]+0.318*[#  11]+0.318*[#  13]+0.014*[#   6]+0.014*[#   7]
          +0.014*[#   8]
    |psi|^2 = 0.999
==== e(   9) =    21.74198 eV ==== 
     psi = 0.333*[#  10]+0.333*[#  11]+0.333*[#  13]
    |psi|^2 = 0.999
==== e(  10) =    26.18049 eV ==== 
     psi = 0.186*[#   2]+0.089*[#   9]+0.089*[#  12]
    |psi|^2 = 0.363
==== e(  11) =    33.46877 eV ==== 
     psi = 0.515*[#   6]+0.515*[#   7]+0.515*[#   8]+0.014*[#  10]+0.014*[#  11]
          +0.014*[#  13]+0.002*[#   3]+0.002*[#   4]+0.002*[#   5]
    |psi|^2 = 1.594
==== e(  12) =    33.46877 eV ==== 
     psi = 0.306*[#   6]+0.306*[#   7]+0.306*[#   8]+0.014*[#  10]+0.014*[#  11]
          +0.014*[#  13]+0.002*[#   3]+0.002*[#   4]+0.002*[#   5]
    |psi|^2 = 0.964

 k =   0.0000000000 -0.0500000000  0.8000000000
==== e(   1) =   -64.91717 eV ==== 
     psi = 0.926*[#   1]+0.061*[#   2]+0.004*[#   6]+0.004*[#   7]+0.004*[#   8]
          
    |psi|^2 = 1.000
==== e(   2) =   -31.70006 eV ==== 
     psi = 0.076*[#   3]+0.076*[#   4]+0.076*[#   5]+0.002*[#   2]
    |psi|^2 = 0.232
==== e(   3) =   -31.64504 eV ==== 
     psi = 0.588*[#   3]+0.588*[#   4]+0.588*[#   5]+0.001*[#   6]+0.001*[#   7]
          +0.001*[#   8]
    |psi|^2 = 1.768
==== e(   4) =   -31.63251 eV ==== 
     psi = 0.256*[#   3]+0.256*[#   4]+0.256*[#   5]+0.001*[#   2]
    |psi|^2 = 0.774
==== e(   5) =    16.43788 eV ==== 
     psi = 0.433*[#   9]+0.433*[#  12]+0.040*[#   6]+0.040*[#   7]+0.040*[#   8]
          +0.006*[#   2]
    |psi|^2 = 0.994
==== e(   6) =    16.54928 eV ==== 
     psi = 0.486*[#   9]+0.486*[#  12]+0.003*[#   6]+0.003*[#   7]+0.003*[#   8]
          
    |psi|^2 = 0.982
==== e(   7) =    21.21641 eV ==== 
     psi = 0.321*[#  10]+0.321*[#  11]+0.321*[#  13]+0.012*[#   6]+0.012*[#   7]
          +0.012*[#   8]
    |psi|^2 = 1.000
==== e(   8) =    21.30632 eV ==== 
     psi = 0.318*[#  10]+0.318*[#  11]+0.318*[#  13]+0.012*[#   6]+0.012*[#   7]
          +0.012*[#   8]+0.003*[#   9]+0.003*[#  12]+0.002*[#   2]
    |psi|^2 = 0.996
==== e(   9) =    22.00580 eV ==== 
     psi = 0.333*[#  10]+0.333*[#  11]+0.333*[#  13]
    |psi|^2 = 1.000
==== e(  10) =    27.43630 eV ==== 
     psi = 0.140*[#   2]+0.058*[#   9]+0.058*[#  12]+0.003*[#   6]+0.003*[#   7]
          +0.003*[#   8]+0.001*[#  10]+0.001*[#  11]+0.001*[#  13]
    |psi|^2 = 0.270
==== e(  11) =    32.22735 eV ==== 
     psi = 0.541*[#   6]+0.541*[#   7]+0.541*[#   8]+0.028*[#   2]+0.013*[#  10]
          +0.013*[#  11]+0.013*[#  13]+0.004*[#   9]+0.004*[#  12]+0.001*[#   3]
          +0.001*[#   4]+0.001*[#   5]
    |psi|^2 = 1.701
==== e(  12) =    32.70339 eV ==== 
     psi = 0.312*[#   6]+0.312*[#   7]+0.312*[#   8]+0.012*[#  10]+0.012*[#  11]
          +0.012*[#  13]+0.001*[#   3]+0.001*[#   4]+0.001*[#   5]
    |psi|^2 = 0.976

 k =   0.0000000000 -0.1000000000  0.8500000000
==== e(   1) =   -64.91241 eV ==== 
     psi = 0.923*[#   1]+0.066*[#   2]+0.004*[#   6]+0.004*[#   7]+0.004*[#   8]
          
    |psi|^2 = 1.000
==== e(   2) =   -31.71731 eV ==== 
     psi = 0.142*[#   3]+0.142*[#   4]+0.142*[#   5]
    |psi|^2 = 0.428
==== e(   3) =   -31.65634 eV ==== 
     psi = 0.523*[#   3]+0.523*[#   4]+0.523*[#   5]
    |psi|^2 = 1.572
==== e(   4) =   -31.62987 eV ==== 
     psi = 0.190*[#   3]+0.190*[#   4]+0.190*[#   5]+0.002*[#   2]
    |psi|^2 = 0.575
==== e(   5) =    16.39502 eV ==== 
     psi = 0.460*[#   9]+0.460*[#  12]+0.021*[#   6]+0.021*[#   7]+0.021*[#   8]
          +0.001*[#  10]+0.001*[#  11]+0.001*[#  13]+0.001*[#   2]
    |psi|^2 = 0.990
==== e(   6) =    16.42705 eV ==== 
     psi = 0.468*[#   9]+0.468*[#  12]+0.012*[#   6]+0.012*[#   7]+0.012*[#   8]
          
    |psi|^2 = 0.975
==== e(   7) =    21.25541 eV ==== 
     psi = 0.323*[#  10]+0.323*[#  11]+0.323*[#  13]+0.014*[#   6]+0.014*[#   7]
          +0.014*[#   8]
    |psi|^2 = 1.011
==== e(   8) =    21.45372 eV ==== 
     psi = 0.316*[#  10]+0.316*[#  11]+0.316*[#  13]+0.008*[#   6]+0.008*[#   7]
          +0.008*[#   8]+0.006*[#   2]+0.006*[#   9]+0.006*[#  12]
    |psi|^2 = 0.987
==== e(   9) =    22.23460 eV ==== 
     psi = 0.333*[#  10]+0.333*[#  11]+0.333*[#  13]
    |psi|^2 = 1.000
==== e(  10) =    28.84454 eV ==== 
     psi = 0.062*[#   2]+0.039*[#   9]+0.039*[#  12]+0.024*[#   6]+0.024*[#   7]
          +0.024*[#   8]+0.002*[#  10]+0.002*[#  11]+0.002*[#  13]
    |psi|^2 = 0.218
==== e(  11) =    30.70827 eV ==== 
     psi = 0.523*[#   6]+0.523*[#   7]+0.523*[#   8]+0.096*[#   2]+0.013*[#  10]
          +0.013*[#  11]+0.013*[#  13]+0.012*[#   9]+0.012*[#  12]
    |psi|^2 = 1.728
==== e(  12) =    32.28424 eV ==== 
     psi = 0.316*[#   6]+0.316*[#   7]+0.316*[#   8]+0.010*[#  10]+0.010*[#  11]
          +0.010*[#  13]+0.001*[#   3]+0.001*[#   4]+0.001*[#   5]
    |psi|^2 = 0.980

 k =  -0.0500000000 -0.0500000000  0.8500000000
==== e(   1) =   -64.91041 eV ==== 
     psi = 0.923*[#   1]+0.067*[#   2]+0.003*[#   6]+0.003*[#   7]+0.003*[#   8]
          
    |psi|^2 = 1.000
==== e(   2) =   -31.70484 eV ==== 
     psi = 0.098*[#   3]+0.098*[#   4]+0.098*[#   5]
    |psi|^2 = 0.297
==== e(   3) =   -31.67083 eV ==== 
     psi = 0.567*[#   3]+0.567*[#   4]+0.567*[#   5]
    |psi|^2 = 1.704
==== e(   4) =   -31.63778 eV ==== 
     psi = 0.283*[#   3]+0.283*[#   4]+0.283*[#   5]+0.001*[#   2]
    |psi|^2 = 0.855
==== e(   5) =    16.34346 eV ==== 
     psi = 0.454*[#   9]+0.454*[#  12]+0.026*[#   6]+0.026*[#   7]+0.026*[#   8]
          +0.001*[#   2]
    |psi|^2 = 0.991
==== e(   6) =    16.38139 eV ==== 
     psi = 0.483*[#   9]+0.483*[#  12]+0.006*[#   6]+0.006*[#   7]+0.006*[#   8]
          
    |psi|^2 = 0.985
==== e(   7) =    21.33625 eV ==== 
     psi = 0.321*[#  10]+0.321*[#  11]+0.321*[#  13]+0.009*[#   6]+0.009*[#   7]
          +0.009*[#   8]+0.003*[#   2]
    |psi|^2 = 0.995
==== e(   8) =    21.70346 eV ==== 
     psi = 0.323*[#  10]+0.323*[#  11]+0.323*[#  13]+0.011*[#   6]+0.011*[#   7]
          +0.011*[#   8]+0.002*[#   9]+0.002*[#  12]
    |psi|^2 = 1.007
==== e(   9) =    22.13467 eV ==== 
     psi = 0.332*[#  10]+0.332*[#  11]+0.332*[#  13]
    |psi|^2 = 1.000
==== e(  10) =    28.72275 eV ==== 
     psi = 0.085*[#   2]+0.037*[#   9]+0.037*[#  12]+0.005*[#   6]+0.005*[#   7]
          +0.005*[#   8]+0.002*[#  10]+0.002*[#  11]+0.002*[#  13]
    |psi|^2 = 0.181
==== e(  11) =    31.55085 eV ==== 
     psi = 0.584*[#   6]+0.584*[#   7]+0.584*[#   8]+0.009*[#  10]+0.009*[#  11]
          +0.009*[#  13]+0.007*[#   9]+0.007*[#  12]
    |psi|^2 = 1.797
==== e(  12) =    31.71063 eV ==== 
     psi = 0.300*[#   6]+0.300*[#   7]+0.300*[#   8]+0.050*[#   2]+0.011*[#  10]
          +0.011*[#  11]+0.011*[#  13]+0.001*[#   9]+0.001*[#  12]
    |psi|^2 = 0.985

 k =  -0.0500000000  0.9000000000 -0.1000000000
==== e(   1) =   -64.90807 eV ==== 
     psi = 0.922*[#   1]+0.070*[#   2]+0.003*[#   6]+0.003*[#   7]+0.003*[#   8]
          
    |psi|^2 = 1.000
==== e(   2) =   -31.70678 eV ==== 
     psi = 0.166*[#   3]+0.166*[#   4]+0.166*[#   5]
    |psi|^2 = 0.502
==== e(   3) =   -31.68187 eV ==== 
     psi = 0.454*[#   3]+0.454*[#   4]+0.454*[#   5]
    |psi|^2 = 1.364
==== e(   4) =   -31.63678 eV ==== 
     psi = 0.211*[#   3]+0.211*[#   4]+0.211*[#   5]+0.002*[#   2]
    |psi|^2 = 0.637
==== e(   5) =    16.31625 eV ==== 
     psi = 0.476*[#   9]+0.476*[#  12]+0.010*[#   6]+0.010*[#   7]+0.010*[#   8]
          
    |psi|^2 = 0.986
==== e(   6) =    16.31724 eV ==== 
     psi = 0.466*[#   9]+0.466*[#  12]+0.012*[#   6]+0.012*[#   7]+0.012*[#   8]
          
    |psi|^2 = 0.971
==== e(   7) =    21.35408 eV ==== 
     psi = 0.321*[#  10]+0.321*[#  11]+0.321*[#  13]+0.017*[#   6]+0.017*[#   7]
          +0.017*[#   8]+0.003*[#   2]
    |psi|^2 = 1.018
==== e(   8) =    21.86774 eV ==== 
     psi = 0.325*[#  10]+0.325*[#  11]+0.325*[#  13]+0.004*[#   6]+0.004*[#   7]
          +0.004*[#   8]+0.002*[#   9]+0.002*[#  12]
    |psi|^2 = 0.994
==== e(   9) =    22.18474 eV ==== 
     psi = 0.331*[#  10]+0.331*[#  11]+0.331*[#  13]+0.001*[#   6]+0.001*[#   7]
          +0.001*[#   8]
    |psi|^2 = 1.000
==== e(  10) =    29.90045 eV ==== 
     psi = 0.156*[#   6]+0.156*[#   7]+0.156*[#   8]+0.026*[#   9]+0.026*[#  12]
          +0.002*[#  10]+0.002*[#  11]+0.002*[#  13]
    |psi|^2 = 0.525
==== e(  11) =    30.45207 eV ==== 
     psi = 0.305*[#   6]+0.305*[#   7]+0.305*[#   8]+0.087*[#   2]+0.011*[#   9]
          +0.011*[#  12]+0.010*[#  10]+0.010*[#  11]+0.010*[#  13]
    |psi|^2 = 1.053
==== e(  12) =    31.44214 eV ==== 
     psi = 0.299*[#   6]+0.299*[#   7]+0.299*[#   8]+0.039*[#   2]+0.009*[#  10]
          +0.009*[#  11]+0.009*[#  13]+0.002*[#   9]+0.002*[#  12]
    |psi|^2 = 0.971

 k =   0.0000000000  0.0000000000  0.8500000000
==== e(   1) =   -64.90842 eV ==== 
     psi = 0.923*[#   1]+0.069*[#   2]+0.003*[#   6]+0.003*[#   7]+0.003*[#   8]
          
    |psi|^2 = 1.000
==== e(   2) =   -31.69026 eV ==== 
     psi = 0.002*[#   2]
    |psi|^2 = 0.004
==== e(   3) =   -31.66629 eV ==== 
     psi = 0.664*[#   3]+0.664*[#   4]+0.664*[#   5]
    |psi|^2 = 1.996
==== e(   4) =   -31.66629 eV ==== 
     psi = 0.332*[#   3]+0.332*[#   4]+0.332*[#   5]
    |psi|^2 = 1.000
==== e(   5) =    16.28630 eV ==== 
     psi = 0.456*[#   9]+0.456*[#  12]+0.025*[#   6]+0.025*[#   7]+0.025*[#   8]
          +0.001*[#   2]
    |psi|^2 = 0.991
==== e(   6) =    16.33667 eV ==== 
     psi = 0.490*[#   9]+0.490*[#  12]
    |psi|^2 = 0.981
==== e(   7) =    21.69146 eV ==== 
     psi = 0.324*[#  10]+0.324*[#  11]+0.324*[#  13]+0.009*[#   6]+0.009*[#   7]
          +0.009*[#   8]
    |psi|^2 = 1.000
==== e(   8) =    21.69146 eV ==== 
     psi = 0.324*[#  10]+0.324*[#  11]+0.324*[#  13]+0.009*[#   6]+0.009*[#   7]
          +0.009*[#   8]
    |psi|^2 = 1.000
==== e(   9) =    22.03927 eV ==== 
     psi = 0.333*[#  10]+0.333*[#  11]+0.333*[#  13]
    |psi|^2 = 1.000
==== e(  10) =    28.54599 eV ==== 
     psi = 0.096*[#   2]+0.036*[#   9]+0.036*[#  12]
    |psi|^2 = 0.168
==== e(  11) =    31.89295 eV ==== 
     psi = 0.593*[#   6]+0.593*[#   7]+0.593*[#   8]+0.009*[#  10]+0.009*[#  11]
          +0.009*[#  13]
    |psi|^2 = 1.809
==== e(  12) =    31.89295 eV ==== 
     psi = 0.318*[#   6]+0.318*[#   7]+0.318*[#   8]+0.009*[#  10]+0.009*[#  11]
          +0.009*[#  13]
    |psi|^2 = 0.984

 k =   0.0000000000 -0.0500000000  0.9000000000
==== e(   1) =   -64.90382 eV ==== 
     psi = 0.922*[#   1]+0.073*[#   2]+0.002*[#   6]+0.002*[#   7]+0.002*[#   8]
          
    |psi|^2 = 1.000
==== e(   2) =   -31.69987 eV ==== 
     psi = 0.121*[#   3]+0.121*[#   4]+0.121*[#   5]
    |psi|^2 = 0.365
==== e(   3) =   -31.67751 eV ==== 
     psi = 0.544*[#   3]+0.544*[#   4]+0.544*[#   5]
    |psi|^2 = 1.635
==== e(   4) =   -31.66927 eV ==== 
     psi = 0.211*[#   3]+0.211*[#   4]+0.211*[#   5]
    |psi|^2 = 0.636
==== e(   5) =    16.20769 eV ==== 
     psi = 0.473*[#   9]+0.473*[#  12]+0.013*[#   6]+0.013*[#   7]+0.013*[#   8]
          
    |psi|^2 = 0.987
==== e(   6) =    16.22062 eV ==== 
     psi = 0.487*[#   9]+0.487*[#  12]+0.003*[#   6]+0.003*[#   7]+0.003*[#   8]
          
    |psi|^2 = 0.982
==== e(   7) =    21.82595 eV ==== 
     psi = 0.327*[#  10]+0.327*[#  11]+0.327*[#  13]+0.006*[#   6]+0.006*[#   7]
          +0.006*[#   8]
    |psi|^2 = 1.000
==== e(   8) =    21.90027 eV ==== 
     psi = 0.326*[#  10]+0.326*[#  11]+0.326*[#  13]+0.005*[#   6]+0.005*[#   7]
          +0.005*[#   8]
    |psi|^2 = 0.996
==== e(   9) =    22.20297 eV ==== 
     psi = 0.333*[#  10]+0.333*[#  11]+0.333*[#  13]
    |psi|^2 = 1.000
==== e(  10) =    29.75057 eV ==== 
     psi = 0.042*[#   2]+0.019*[#   9]+0.019*[#  12]+0.006*[#   6]+0.006*[#   7]
          +0.006*[#   8]
    |psi|^2 = 0.102
==== e(  11) =    31.00063 eV ==== 
     psi = 0.605*[#   6]+0.605*[#   7]+0.605*[#   8]+0.023*[#   2]+0.006*[#  10]
          +0.006*[#  11]+0.006*[#  13]+0.004*[#   9]+0.004*[#  12]
    |psi|^2 = 1.867
==== e(  12) =    31.44473 eV ==== 
     psi = 0.322*[#   6]+0.322*[#   7]+0.322*[#   8]+0.006*[#  10]+0.006*[#  11]
          +0.006*[#  13]
    |psi|^2 = 0.986

 k =  -0.0500000000  0.9500000000 -0.0500000000
==== e(   1) =   -64.90154 eV ==== 
     psi = 0.922*[#   1]+0.075*[#   2]+0.001*[#   6]+0.001*[#   7]+0.001*[#   8]
          
    |psi|^2 = 1.000
==== e(   2) =   -31.69333 eV ==== 
     psi = 0.279*[#   3]+0.279*[#   4]+0.279*[#   5]
    |psi|^2 = 0.840
==== e(   3) =   -31.69333 eV ==== 
     psi = 0.218*[#   3]+0.218*[#   4]+0.218*[#   5]
    |psi|^2 = 0.656
==== e(   4) =   -31.67091 eV ==== 
     psi = 0.281*[#   3]+0.281*[#   4]+0.281*[#   5]
    |psi|^2 = 0.846
==== e(   5) =    16.16278 eV ==== 
     psi = 0.484*[#   9]+0.484*[#  12]+0.005*[#   6]+0.005*[#   7]+0.005*[#   8]
          
    |psi|^2 = 0.983
==== e(   6) =    16.16278 eV ==== 
     psi = 0.484*[#   9]+0.484*[#  12]+0.004*[#   6]+0.004*[#   7]+0.004*[#   8]
          
    |psi|^2 = 0.979
==== e(   7) =    21.88562 eV ==== 
     psi = 0.328*[#  10]+0.328*[#  11]+0.328*[#  13]+0.006*[#   6]+0.006*[#   7]
          +0.006*[#   8]
    |psi|^2 = 1.003
==== e(   8) =    22.15970 eV ==== 
     psi = 0.332*[#  10]+0.332*[#  11]+0.332*[#  13]+0.003*[#   6]+0.003*[#   7]
          +0.003*[#   8]
    |psi|^2 = 1.005
==== e(   9) =    22.15970 eV ==== 
     psi = 0.332*[#  10]+0.332*[#  11]+0.332*[#  13]+0.001*[#   6]+0.001*[#   7]
          +0.001*[#   8]
    |psi|^2 = 1.000
==== e(  10) =    30.67129 eV ==== 
     psi = 0.173*[#   6]+0.173*[#   7]+0.173*[#   8]+0.008*[#   9]+0.008*[#  12]
          +0.001*[#  10]+0.001*[#  11]+0.001*[#  13]
    |psi|^2 = 0.539
==== e(  11) =    30.67129 eV ==== 
     psi = 0.408*[#   6]+0.408*[#   7]+0.408*[#   8]+0.008*[#   9]+0.008*[#  12]
          +0.001*[#  10]+0.001*[#  11]+0.001*[#  13]
    |psi|^2 = 1.245
==== e(  12) =    30.91227 eV ==== 
     psi = 0.265*[#   6]+0.265*[#   7]+0.265*[#   8]+0.045*[#   2]+0.005*[#  10]
          +0.005*[#  11]+0.005*[#  13]
    |psi|^2 = 0.858

 k =   0.0000000000  0.0000000000  0.9500000000
==== e(   1) =   -64.89930 eV ==== 
     psi = 0.922*[#   1]+0.077*[#   2]
    |psi|^2 = 1.000
==== e(   2) =   -31.69155 eV ==== 

    |psi|^2 = 0.000
==== e(   3) =   -31.68878 eV ==== 
     psi = 0.665*[#   3]+0.665*[#   4]+0.665*[#   5]+0.001*[#   6]+0.001*[#   7]
          +0.001*[#   8]
    |psi|^2 = 2.000
==== e(   4) =   -31.68878 eV ==== 
     psi = 0.333*[#   3]+0.333*[#   4]+0.333*[#   5]
    |psi|^2 = 1.000
==== e(   5) =    16.10779 eV ==== 
     psi = 0.486*[#   9]+0.486*[#  12]+0.003*[#   6]+0.003*[#   7]+0.003*[#   8]
          
    |psi|^2 = 0.983
==== e(   6) =    16.11120 eV ==== 
     psi = 0.491*[#   9]+0.491*[#  12]
    |psi|^2 = 0.981
==== e(   7) =    22.15104 eV ==== 
     psi = 0.332*[#  10]+0.332*[#  11]+0.332*[#  13]+0.001*[#   6]+0.001*[#   7]
          +0.001*[#   8]
    |psi|^2 = 1.000
==== e(   8) =    22.15104 eV ==== 
     psi = 0.332*[#  10]+0.332*[#  11]+0.332*[#  13]+0.001*[#   6]+0.001*[#   7]
          +0.001*[#   8]
    |psi|^2 = 1.000
==== e(   9) =    22.19691 eV ==== 
     psi = 0.333*[#  10]+0.333*[#  11]+0.333*[#  13]
    |psi|^2 = 1.000
==== e(  10) =    30.51524 eV ==== 
     psi = 0.014*[#   2]+0.005*[#   9]+0.005*[#  12]
    |psi|^2 = 0.025
==== e(  11) =    30.97608 eV ==== 
     psi = 0.648*[#   6]+0.648*[#   7]+0.648*[#   8]+0.001*[#  10]+0.001*[#  11]
          +0.001*[#  13]+0.001*[#   3]+0.001*[#   4]+0.001*[#   5]
    |psi|^2 = 1.952
==== e(  12) =    30.97608 eV ==== 
     psi = 0.327*[#   6]+0.327*[#   7]+0.327*[#   8]+0.001*[#  10]+0.001*[#  11]
          +0.001*[#  13]
    |psi|^2 = 0.987

Lowdin Charges: 

     Atom #   1: total charge =  15.2668, s =  2.2678, p =  6.3500, d =  6.6490, 
                 spin up      =   8.6239, s =  1.1284, 
                 spin up      =   8.6239, p =  3.1413, pz=  1.0471, px=  1.0471, py=  1.0471, 
                 spin up      =   8.6239, d =  4.3543, dz2=  0.9303, dxz=  0.8312, dyz=  0.8312, dx2-y2=  0.9303, dxy=  0.8312, 
                 spin down    =   6.6429, s =  1.1394, 
                 spin down    =   6.6429, p =  3.2088, pz=  1.0696, px=  1.0696, py=  1.0696, 
                 spin down    =   6.6429, d =  2.2948, dz2=  0.3401, dxz=  0.5382, dyz=  0.5382, dx2-y2=  0.3401, dxy=  0.5382, 
                 polarization =   1.9810, s = -0.0110, p = -0.0675, d =  2.0595, 
     Spilling Parameter:   0.0458

     PROJWFC      :      4.07s CPU      3.43s WALL


   This run was terminated on:  23:12:42  18Apr2021            

=------------------------------------------------------------------------------=
   JOB DONE.
=------------------------------------------------------------------------------=
