
     Program PWSCF v.6.7GPU starts on 18Apr2021 at 23: 0: 8 

     This program is part of the open-source Quantum ESPRESSO suite
     for quantum simulation of materials; please cite
         "P. Giannozzi et al., J. Phys.:Condens. Matter 21 395502 (2009);
         "P. Giannozzi et al., J. Phys.:Condens. Matter 29 465901 (2017);
         "P. Giannozzi et al., J. Chem. Phys. 152 154105 (2020);
          URL http://www.quantum-espresso.org", 
     in publications or presentations arising from this work. More details at
     http://www.quantum-espresso.org/quote

     Parallel version (MPI & OpenMP), running on       2 processor cores
     Number of MPI processes:                 2
     Threads/MPI process:                     1

     MPI processes distributed on     1 nodes
     R & G space division:  proc/nbgrp/npool/nimage =       2
     Waiting for input...
     Reading input from standard input

     Current dimensions of program PWSCF are:
     Max number of different atomic species (ntypx) = 10
     Max number of k-points (npk) =  40000
     Max angular momentum in pseudopotentials (lmaxx) =  3

     Subspace diagonalization in iterative solution of the eigenvalue problem:
     a serial algorithm will be used


     Parallelization info
     --------------------
     sticks:   dense  smooth     PW     G-vecs:    dense   smooth      PW
     Min         639     207     68                14597     2736     527
     Max         640     208     69                14600     2737     528
     Sum        1279     415    137                29197     5473    1055

     Using Slab Decomposition



     bravais-lattice index     =            3
     lattice parameter (alat)  =       5.1970  a.u.
     unit-cell volume          =      70.1824 (a.u.)^3
     number of atoms/cell      =            1
     number of atomic types    =            1
     number of electrons       =        16.00
     number of Kohn-Sham states=           12
     kinetic-energy cutoff     =      70.0000  Ry
     charge density cutoff     =     850.0000  Ry
     scf convergence threshold =      1.0E-08
     mixing beta               =       0.7000
     number of iterations used =            8  plain     mixing
     Exchange-correlation= LDA
                           (   1   1   0   0   0   0   0)

     celldm(1)=   5.197000  celldm(2)=   0.000000  celldm(3)=   0.000000
     celldm(4)=   0.000000  celldm(5)=   0.000000  celldm(6)=   0.000000

     crystal axes: (cart. coord. in units of alat)
               a(1) = (   0.500000   0.500000   0.500000 )  
               a(2) = (  -0.500000   0.500000   0.500000 )  
               a(3) = (  -0.500000  -0.500000   0.500000 )  

     reciprocal axes: (cart. coord. in units 2 pi/alat)
               b(1) = (  1.000000  0.000000  1.000000 )  
               b(2) = ( -1.000000  1.000000  0.000000 )  
               b(3) = (  0.000000 -1.000000  1.000000 )  


     PseudoPot. # 1 for Fe read from file:
     /home/pietro/repositories/materials-for-max-qe2021-online-school/pseudo/Fe.pz-spn-rrkjus_psl.0.2.1.UPF
     MD5 check sum: 3cbc4c6ff80f64c0ae98e6ac432cb3b7
     Pseudo is Ultrasoft + core correction, Zval = 16.0
     Generated using "atomic" code by A. Dal Corso  v.5.0.2 svn rev. 9415
     Using radial grid of 1191 points,  6 beta functions with: 
                l(1) =   0
                l(2) =   0
                l(3) =   1
                l(4) =   1
                l(5) =   2
                l(6) =   2
     Q(r) pseudized with 0 coefficients 


     atomic species   valence    mass     pseudopotential
        Fe            16.00    55.84500     Fe( 1.00)

     Starting magnetic structure 
     atomic species   magnetization
        Fe           0.700

     48 Sym. Ops., with inversion, found



   Cartesian axes

     site n.     atom                  positions (alat units)
         1           Fe  tau(   1) = (   0.0000000   0.0000000   0.0000000  )

     number of k points=   100  Marzari-Vanderbilt smearing, width (Ry)=  0.0200

     Number of k-points >= 100: set verbosity='high' to print them.

     Dense  grid:    29197 G-vectors     FFT dimensions: (  45,  45,  45)

     Smooth grid:     5473 G-vectors     FFT dimensions: (  24,  24,  24)

     Estimated max dynamical RAM per process >      72.50 MB

     Estimated total dynamical RAM >     145.00 MB

     Check: negative core charge=   -0.000011
     Generating pointlists ...
     new r_m :   0.3572 (alat units)  1.8566 (a.u.) for type    1

     Initial potential from superposition of free atoms

     starting charge   15.99965, renormalised to   16.00000
     Starting wfcs are   13 randomized atomic wfcs

     total cpu time spent up to now is        1.0 secs

     Self-consistent Calculation

     iteration #  1     ecut=    70.00 Ry     beta= 0.70
     Davidson diagonalization with overlap
     ethr =  1.00E-02,  avg # of iterations =  3.4

     negative rho (up, down):  0.000E+00 5.344E-05

     total cpu time spent up to now is        2.7 secs

     total energy              =    -253.93358476 Ry
     estimated scf accuracy    <       1.54790996 Ry

     total magnetization       =     3.75 Bohr mag/cell
     absolute magnetization    =     3.77 Bohr mag/cell

     iteration #  2     ecut=    70.00 Ry     beta= 0.70
     Davidson diagonalization with overlap
     ethr =  9.67E-03,  avg # of iterations =  1.2

     negative rho (up, down):  0.000E+00 5.620E-05

     total cpu time spent up to now is        4.0 secs

     total energy              =    -254.13847441 Ry
     estimated scf accuracy    <       0.34362021 Ry

     total magnetization       =     2.92 Bohr mag/cell
     absolute magnetization    =     3.00 Bohr mag/cell

     iteration #  3     ecut=    70.00 Ry     beta= 0.70
     Davidson diagonalization with overlap
     ethr =  2.15E-03,  avg # of iterations =  2.1

     negative rho (up, down):  0.000E+00 5.395E-05

     total cpu time spent up to now is        5.6 secs

     total energy              =    -254.16756166 Ry
     estimated scf accuracy    <       0.45417024 Ry

     total magnetization       =     2.19 Bohr mag/cell
     absolute magnetization    =     2.27 Bohr mag/cell

     iteration #  4     ecut=    70.00 Ry     beta= 0.70
     Davidson diagonalization with overlap
     ethr =  2.15E-03,  avg # of iterations =  2.0

     negative rho (up, down):  0.000E+00 3.232E-05

     total cpu time spent up to now is        7.0 secs

     total energy              =    -254.23522046 Ry
     estimated scf accuracy    <       0.00365427 Ry

     total magnetization       =     2.05 Bohr mag/cell
     absolute magnetization    =     2.13 Bohr mag/cell

     iteration #  5     ecut=    70.00 Ry     beta= 0.70
     Davidson diagonalization with overlap
     ethr =  2.28E-05,  avg # of iterations =  4.5

     negative rho (up, down):  0.000E+00 2.465E-05

     total cpu time spent up to now is        9.0 secs

     total energy              =    -254.23781548 Ry
     estimated scf accuracy    <       0.00078087 Ry

     total magnetization       =     1.98 Bohr mag/cell
     absolute magnetization    =     2.03 Bohr mag/cell

     iteration #  6     ecut=    70.00 Ry     beta= 0.70
     Davidson diagonalization with overlap
     ethr =  4.88E-06,  avg # of iterations =  2.4

     negative rho (up, down):  0.000E+00 2.260E-05

     total cpu time spent up to now is       10.6 secs

     total energy              =    -254.23807174 Ry
     estimated scf accuracy    <       0.00028527 Ry

     total magnetization       =     1.96 Bohr mag/cell
     absolute magnetization    =     2.00 Bohr mag/cell

     iteration #  7     ecut=    70.00 Ry     beta= 0.70
     Davidson diagonalization with overlap
     ethr =  1.78E-06,  avg # of iterations =  2.0

     negative rho (up, down):  0.000E+00 2.311E-05

     total cpu time spent up to now is       12.0 secs

     total energy              =    -254.23812857 Ry
     estimated scf accuracy    <       0.00000108 Ry

     total magnetization       =     1.96 Bohr mag/cell
     absolute magnetization    =     2.00 Bohr mag/cell

     iteration #  8     ecut=    70.00 Ry     beta= 0.70
     Davidson diagonalization with overlap
     ethr =  6.74E-09,  avg # of iterations =  5.1

     negative rho (up, down):  0.000E+00 2.300E-05

     total cpu time spent up to now is       14.3 secs

     total energy              =    -254.23813070 Ry
     estimated scf accuracy    <       0.00000054 Ry

     total magnetization       =     1.96 Bohr mag/cell
     absolute magnetization    =     2.00 Bohr mag/cell

     iteration #  9     ecut=    70.00 Ry     beta= 0.70
     Davidson diagonalization with overlap
     ethr =  3.38E-09,  avg # of iterations =  1.9

     negative rho (up, down):  0.000E+00 2.290E-05

     total cpu time spent up to now is       15.8 secs

     total energy              =    -254.23813080 Ry
     estimated scf accuracy    <       0.00000003 Ry

     total magnetization       =     1.96 Bohr mag/cell
     absolute magnetization    =     2.00 Bohr mag/cell

     iteration # 10     ecut=    70.00 Ry     beta= 0.70
     Davidson diagonalization with overlap
     ethr =  2.13E-10,  avg # of iterations =  2.2

     negative rho (up, down):  0.000E+00 2.291E-05

     Magnetic moment per site  (integrated on atomic sphere of radius R)
     atom   1 (R=0.357)  charge= 14.3297  magn=  1.9601

     total cpu time spent up to now is       17.3 secs

     End of self-consistent calculation

     Number of k-points >= 100: set verbosity='high' to print the bands.

     the Fermi energy is    20.0201 ev

!    total energy              =    -254.23813081 Ry
     estimated scf accuracy    <          2.1E-09 Ry
     smearing contrib. (-TS)   =       0.00066280 Ry
     internal energy E=F+TS    =    -254.23879361 Ry

     The total energy is F=E-TS. E is the sum of the following terms:
     one-electron contribution =    -102.76222636 Ry
     hartree contribution      =      62.28406584 Ry
     xc contribution           =     -34.49494845 Ry
     ewald contribution        =    -179.26568464 Ry

     total magnetization       =     1.96 Bohr mag/cell
     absolute magnetization    =     2.00 Bohr mag/cell

     convergence has been achieved in  10 iterations

     Writing output data file ./tempdir/fe.save/

     init_run     :      0.92s CPU      0.96s WALL (       1 calls)
     electrons    :     15.43s CPU     16.29s WALL (       1 calls)

     Called by init_run:
     wfcinit      :      0.57s CPU      0.60s WALL (       1 calls)
     potinit      :      0.01s CPU      0.02s WALL (       1 calls)
     hinit0       :      0.20s CPU      0.20s WALL (       1 calls)

     Called by electrons:
     c_bands      :     12.01s CPU     12.55s WALL (      10 calls)
     sum_band     :      2.73s CPU      2.94s WALL (      10 calls)
     v_of_rho     :      0.08s CPU      0.08s WALL (      11 calls)
     newd         :      0.61s CPU      0.72s WALL (      11 calls)
     mix_rho      :      0.03s CPU      0.03s WALL (      10 calls)

     Called by c_bands:
     init_us_2    :      0.26s CPU      0.28s WALL (    4200 calls)
     cegterg      :     11.56s CPU     12.07s WALL (    2000 calls)

     Called by *egterg:
     cdiaghg      :      0.74s CPU      0.77s WALL (    7349 calls)
     h_psi        :     10.42s CPU     10.88s WALL (    7549 calls)
     s_psi        :      0.12s CPU      0.13s WALL (    7549 calls)
     g_psi        :      0.05s CPU      0.05s WALL (    5349 calls)

     Called by h_psi:
     h_psi:calbec :      0.17s CPU      0.18s WALL (    7549 calls)
     vloc_psi     :     10.08s CPU     10.53s WALL (    7549 calls)
     add_vuspsi   :      0.13s CPU      0.13s WALL (    7549 calls)

     General routines
     calbec       :      0.23s CPU      0.25s WALL (    9549 calls)
     fft          :      0.08s CPU      0.08s WALL (     115 calls)
     ffts         :      0.00s CPU      0.00s WALL (      42 calls)
     fftw         :     10.83s CPU     11.34s WALL (  149934 calls)
     interpolate  :      0.02s CPU      0.02s WALL (      22 calls)

     Parallel routines

     PWSCF        :     16.44s CPU     17.38s WALL


   This run was terminated on:  23: 0:26  18Apr2021            

=------------------------------------------------------------------------------=
   JOB DONE.
=------------------------------------------------------------------------------=
