
     Program PWSCF v.6.3 starts on 14Sep2019 at 13:28:24 

     This program is part of the open-source Quantum ESPRESSO suite
     for quantum simulation of materials; please cite
         "P. Giannozzi et al., J. Phys.:Condens. Matter 21 395502 (2009);
         "P. Giannozzi et al., J. Phys.:Condens. Matter 29 465901 (2017);
          URL http://www.quantum-espresso.org", 
     in publications or presentations arising from this work. More details at
     http://www.quantum-espresso.org/quote

     Parallel version (MPI), running on     1 processors

     MPI processes distributed on     1 nodes
     Waiting for input...
     Reading input from standard input

     Current dimensions of program PWSCF are:
     Max number of different atomic species (ntypx) = 10
     Max number of k-points (npk) =  40000
     Max angular momentum in pseudopotentials (lmaxx) =  3
               file C.pbe-rrkjus.UPF: wavefunction(s)  2S 2P renormalized

     Subspace diagonalization in iterative solution of the eigenvalue problem:
     a serial algorithm will be used


     G-vector sticks info
     --------------------
     sticks:   dense  smooth     PW     G-vecs:    dense   smooth      PW
     Sum         301     121     37                12531     3147     647



     bravais-lattice index     =            4
     lattice parameter (alat)  =       4.6540  a.u.
     unit-cell volume          =     261.8973 (a.u.)^3
     number of atoms/cell      =            2
     number of atomic types    =            1
     number of electrons       =         8.00
     number of Kohn-Sham states=            4
     kinetic-energy cutoff     =      20.0000  Ry
     charge density cutoff     =     200.0000  Ry
     convergence threshold     =      1.0E-08
     mixing beta               =       0.7000
     number of iterations used =            8  plain     mixing
     Exchange-correlation      =  SLA  PW   PBE  PBE ( 1  4  3  4 0 0)

     celldm(1)=   4.654000  celldm(2)=   0.000000  celldm(3)=   3.000000
     celldm(4)=   0.000000  celldm(5)=   0.000000  celldm(6)=   0.000000

     crystal axes: (cart. coord. in units of alat)
               a(1) = (   1.000000   0.000000   0.000000 )  
               a(2) = (  -0.500000   0.866025   0.000000 )  
               a(3) = (   0.000000   0.000000   3.000000 )  

     reciprocal axes: (cart. coord. in units 2 pi/alat)
               b(1) = (  1.000000  0.577350 -0.000000 )  
               b(2) = (  0.000000  1.154701  0.000000 )  
               b(3) = (  0.000000 -0.000000  0.333333 )  


     PseudoPot. # 1 for C  read from file:
     /home/matic/test.QE-2019/pseudo/C.pbe-rrkjus.UPF
     MD5 check sum: 00fb224312de0c5b6853bd333518df6f
     Pseudo is Ultrasoft, Zval =  4.0
     Generated by new atomic code, or converted to UPF format
     Using radial grid of  627 points,  4 beta functions with: 
                l(1) =   0
                l(2) =   0
                l(3) =   1
                l(4) =   1
     Q(r) pseudized with 0 coefficients 


     atomic species   valence    mass     pseudopotential
        C              4.00    12.01070     C ( 1.00)

     24 Sym. Ops., with inversion, found (12 have fractional translation)



   Cartesian axes

     site n.     atom                  positions (alat units)
         1           C   tau(   1) = (   0.0000000   0.0000000   0.0000000  )
         2           C   tau(   2) = (   0.0000000   0.5773503   0.0000000  )

     number of k points=    12
                       cart. coord. in units 2pi/alat
        k(    1) = (   0.0000000   0.0000000   0.0000000), wk =   0.0246914
        k(    2) = (   0.0000000   0.1283001   0.0000000), wk =   0.1481481
        k(    3) = (   0.0000000   0.2566001   0.0000000), wk =   0.1481481
        k(    4) = (   0.0000000   0.3849002   0.0000000), wk =   0.1481481
        k(    5) = (   0.0000000   0.5132002   0.0000000), wk =   0.1481481
        k(    6) = (   0.1111111   0.1924501   0.0000000), wk =   0.1481481
        k(    7) = (   0.1111111   0.3207501   0.0000000), wk =   0.2962963
        k(    8) = (   0.1111111   0.4490502   0.0000000), wk =   0.2962963
        k(    9) = (   0.1111111   0.5773503   0.0000000), wk =   0.1481481
        k(   10) = (   0.2222222   0.3849002   0.0000000), wk =   0.1481481
        k(   11) = (   0.2222222   0.5132002   0.0000000), wk =   0.2962963
        k(   12) = (   0.3333333   0.5773503   0.0000000), wk =   0.0493827

     Dense  grid:    12531 G-vectors     FFT dimensions: (  24,  24,  64)

     Smooth grid:     3147 G-vectors     FFT dimensions: (  15,  15,  40)

     Estimated max dynamical RAM per process >      16.93 MB

     Initial potential from superposition of free atoms

     starting charge    7.99989, renormalised to    8.00000
     Starting wfcs are    8 randomized atomic wfcs

     total cpu time spent up to now is        0.2 secs

     Self-consistent Calculation

     iteration #  1     ecut=    20.00 Ry     beta= 0.70
     Davidson diagonalization with overlap
     ethr =  1.00E-02,  avg # of iterations =  2.0

     negative rho (up, down):  1.093E-07 0.000E+00

     total cpu time spent up to now is        0.3 secs

     total energy              =     -22.73535297 Ry
     Harris-Foulkes estimate   =     -22.85365323 Ry
     estimated scf accuracy    <       0.19775948 Ry

     iteration #  2     ecut=    20.00 Ry     beta= 0.70
     Davidson diagonalization with overlap
     ethr =  2.47E-03,  avg # of iterations =  2.0

     negative rho (up, down):  6.803E-07 0.000E+00

     total cpu time spent up to now is        0.5 secs

     total energy              =     -22.76499346 Ry
     Harris-Foulkes estimate   =     -22.76517008 Ry
     estimated scf accuracy    <       0.00251997 Ry

     iteration #  3     ecut=    20.00 Ry     beta= 0.70
     Davidson diagonalization with overlap
     ethr =  3.15E-05,  avg # of iterations =  1.8

     negative rho (up, down):  3.950E-06 0.000E+00

     total cpu time spent up to now is        0.6 secs

     total energy              =     -22.76524686 Ry
     Harris-Foulkes estimate   =     -22.76523002 Ry
     estimated scf accuracy    <       0.00015572 Ry

     iteration #  4     ecut=    20.00 Ry     beta= 0.70
     Davidson diagonalization with overlap
     ethr =  1.95E-06,  avg # of iterations =  1.6

     negative rho (up, down):  3.442E-06 0.000E+00

     total cpu time spent up to now is        0.7 secs

     total energy              =     -22.76526143 Ry
     Harris-Foulkes estimate   =     -22.76526109 Ry
     estimated scf accuracy    <       0.00000050 Ry

     iteration #  5     ecut=    20.00 Ry     beta= 0.70
     Davidson diagonalization with overlap
     ethr =  6.22E-09,  avg # of iterations =  3.1

     negative rho (up, down):  3.251E-06 0.000E+00

     total cpu time spent up to now is        0.9 secs

     total energy              =     -22.76526244 Ry
     Harris-Foulkes estimate   =     -22.76526242 Ry
     estimated scf accuracy    <       0.00000001 Ry

     iteration #  6     ecut=    20.00 Ry     beta= 0.70
     Davidson diagonalization with overlap
     ethr =  1.75E-10,  avg # of iterations =  2.0

     negative rho (up, down):  3.199E-06 0.000E+00

     total cpu time spent up to now is        1.0 secs

     End of self-consistent calculation

          k = 0.0000 0.0000 0.0000 (   397 PWs)   bands (ev):

   -18.6680  -6.7213  -2.1511  -2.1511

          k = 0.0000 0.1283 0.0000 (   399 PWs)   bands (ev):

   -18.3765  -6.3803  -3.2769  -2.7260

          k = 0.0000 0.2566 0.0000 (   394 PWs)   bands (ev):

   -17.5060  -5.8247  -5.3526  -3.8887

          k = 0.0000 0.3849 0.0000 (   398 PWs)   bands (ev):

   -16.0800  -8.7588  -4.9210  -3.7274

          k = 0.0000 0.5132 0.0000 (   396 PWs)   bands (ev):

   -14.1735 -11.5156  -5.4831  -1.8711

          k = 0.1111 0.1925 0.0000 (   409 PWs)   bands (ev):

   -17.7959  -5.6976  -4.8365  -3.8917

          k = 0.1111 0.3208 0.0000 (   398 PWs)   bands (ev):

   -16.6472  -7.2878  -5.2681  -4.3581

          k = 0.1111 0.4491 0.0000 (   389 PWs)   bands (ev):

   -14.9679 -10.0510  -6.1384  -2.5205

          k = 0.1111 0.5774 0.0000 (   386 PWs)   bands (ev):

   -13.2291 -12.1943  -6.4422  -1.1765

          k = 0.2222 0.3849 0.0000 (   395 PWs)   bands (ev):

   -15.2443  -8.8118  -7.2828  -2.7719

          k = 0.2222 0.5132 0.0000 (   394 PWs)   bands (ev):

   -13.3939 -10.9232  -8.2822  -0.8916

          k = 0.3333 0.5774 0.0000 (   381 PWs)   bands (ev):

   -11.7300 -11.7300  -9.6762   0.9203

     highest occupied level (ev):     0.9203

!    total energy              =     -22.76526244 Ry
     Harris-Foulkes estimate   =     -22.76526244 Ry
     estimated scf accuracy    <          1.1E-09 Ry

     The total energy is the sum of the following terms:

     one-electron contribution =     -56.38966131 Ry
     hartree contribution      =      30.33216819 Ry
     xc contribution           =      -7.01841886 Ry
     ewald contribution        =      10.31064953 Ry

     convergence has been achieved in   6 iterations

     Writing output data file Graphene_1x1_PBE.save/

     init_run     :      0.19s CPU      0.18s WALL (       1 calls)
     electrons    :      1.40s CPU      0.76s WALL (       1 calls)

     Called by init_run:
     wfcinit      :      0.05s CPU      0.04s WALL (       1 calls)
     potinit      :      0.04s CPU      0.04s WALL (       1 calls)
     hinit0       :      0.09s CPU      0.09s WALL (       1 calls)

     Called by electrons:
     c_bands      :      0.47s CPU      0.28s WALL (       6 calls)
     sum_band     :      0.31s CPU      0.15s WALL (       6 calls)
     v_of_rho     :      0.50s CPU      0.27s WALL (       7 calls)
     newd         :      0.10s CPU      0.08s WALL (       7 calls)
     mix_rho      :      0.02s CPU      0.01s WALL (       6 calls)

     Called by c_bands:
     init_us_2    :      0.05s CPU      0.03s WALL (     156 calls)
     cegterg      :      0.40s CPU      0.24s WALL (      72 calls)

     Called by sum_band:
     sum_band:bec :      0.00s CPU      0.00s WALL (      72 calls)
     addusdens    :      0.17s CPU      0.07s WALL (       6 calls)

     Called by *egterg:
     h_psi        :      0.33s CPU      0.20s WALL (     233 calls)
     s_psi        :      0.02s CPU      0.01s WALL (     233 calls)
     g_psi        :      0.01s CPU      0.01s WALL (     149 calls)
     cdiaghg      :      0.03s CPU      0.03s WALL (     221 calls)

     Called by h_psi:
     h_psi:pot    :      0.33s CPU      0.20s WALL (     233 calls)
     h_psi:calbec :      0.02s CPU      0.01s WALL (     233 calls)
     vloc_psi     :      0.29s CPU      0.17s WALL (     233 calls)
     add_vuspsi   :      0.02s CPU      0.01s WALL (     233 calls)

     General routines
     calbec       :      0.02s CPU      0.02s WALL (     305 calls)
     fft          :      0.14s CPU      0.08s WALL (      89 calls)
     ffts         :      0.01s CPU      0.01s WALL (      13 calls)
     fftw         :      0.26s CPU      0.15s WALL (    2032 calls)
     interpolate  :      0.02s CPU      0.01s WALL (       7 calls)

     Parallel routines

     PWSCF        :     1.64s CPU         0.99s WALL


   This run was terminated on:  13:28:25  14Sep2019            

=------------------------------------------------------------------------------=
   JOB DONE.
=------------------------------------------------------------------------------=
