### Running on host: qe2021

     Program PWSCF v.6.7MaX starts on 17May2021 at 21:23:50 

     This program is part of the open-source Quantum ESPRESSO suite
     for quantum simulation of materials; please cite
         "P. Giannozzi et al., J. Phys.:Condens. Matter 21 395502 (2009);
         "P. Giannozzi et al., J. Phys.:Condens. Matter 29 465901 (2017);
          URL http://www.quantum-espresso.org", 
     in publications or presentations arising from this work. More details at
     http://www.quantum-espresso.org/quote

     Parallel version (MPI), running on     2 processors

     MPI processes distributed on     1 nodes
     R & G space division:  proc/nbgrp/npool/nimage =       2
     Reading input from pw.Si.scf.alat-9.7.in

     Current dimensions of program PWSCF are:
     Max number of different atomic species (ntypx) = 10
     Max number of k-points (npk) =  40000
     Max angular momentum in pseudopotentials (lmaxx) =  3

     Subspace diagonalization in iterative solution of the eigenvalue problem:
     a serial algorithm will be used


     Parallelization info
     --------------------
     sticks:   dense  smooth     PW     G-vecs:    dense   smooth      PW
     Min         189     189     60                 2513     2513     469
     Max         190     190     61                 2516     2516     472
     Sum         379     379    121                 5029     5029     941



     bravais-lattice index     =            2
     lattice parameter (alat)  =       9.7000  a.u.
     unit-cell volume          =     228.1682 (a.u.)^3
     number of atoms/cell      =            2
     number of atomic types    =            1
     number of electrons       =         8.00
     number of Kohn-Sham states=            4
     kinetic-energy cutoff     =      30.0000  Ry
     charge density cutoff     =     120.0000  Ry
     scf convergence threshold =      1.0E-06
     mixing beta               =       0.7000
     number of iterations used =            8  plain     mixing
     Exchange-correlation= SLA  PZ   NOGX NOGC
                           (   1   1   0   0   0   0   0)

     celldm(1)=   9.700000  celldm(2)=   0.000000  celldm(3)=   0.000000
     celldm(4)=   0.000000  celldm(5)=   0.000000  celldm(6)=   0.000000

     crystal axes: (cart. coord. in units of alat)
               a(1) = (  -0.500000   0.000000   0.500000 )  
               a(2) = (   0.000000   0.500000   0.500000 )  
               a(3) = (  -0.500000   0.500000   0.000000 )  

     reciprocal axes: (cart. coord. in units 2 pi/alat)
               b(1) = ( -1.000000 -1.000000  1.000000 )  
               b(2) = (  1.000000  1.000000  1.000000 )  
               b(3) = ( -1.000000  1.000000 -1.000000 )  


     PseudoPot. # 1 for Si read from file:
     /home/user/QE-2021/pseudo/Si.pz-vbc.UPF
     MD5 check sum: a974d1b8727157e37210f3f86afb6210
     Pseudo is Norm-conserving, Zval =  4.0
     Generated by new atomic code, or converted to UPF format
     Using radial grid of  431 points,  2 beta functions with: 
                l(1) =   0
                l(2) =   1

     atomic species   valence    mass     pseudopotential
        Si             4.00    28.08600     Si( 1.00)

     48 Sym. Ops., with inversion, found (24 have fractional translation)



   Cartesian axes

     site n.     atom                  positions (alat units)
         1           Si  tau(   1) = (   0.0000000   0.0000000   0.0000000  )
         2           Si  tau(   2) = (   0.2500000   0.2500000   0.2500000  )

     number of k points=    10
                       cart. coord. in units 2pi/alat
        k(    1) = (  -0.1250000   0.1250000   0.1250000), wk =   0.0625000
        k(    2) = (  -0.3750000   0.3750000  -0.1250000), wk =   0.1875000
        k(    3) = (   0.3750000  -0.3750000   0.6250000), wk =   0.1875000
        k(    4) = (   0.1250000  -0.1250000   0.3750000), wk =   0.1875000
        k(    5) = (  -0.1250000   0.6250000   0.1250000), wk =   0.1875000
        k(    6) = (   0.6250000  -0.1250000   0.8750000), wk =   0.3750000
        k(    7) = (   0.3750000   0.1250000   0.6250000), wk =   0.3750000
        k(    8) = (  -0.1250000  -0.8750000   0.1250000), wk =   0.1875000
        k(    9) = (  -0.3750000   0.3750000   0.3750000), wk =   0.0625000
        k(   10) = (   0.3750000  -0.3750000   1.1250000), wk =   0.1875000

     Dense  grid:     5029 G-vectors     FFT dimensions: (  24,  24,  24)

     Estimated max dynamical RAM per process >       1.93 MB

     Estimated total dynamical RAM >       3.85 MB

     Initial potential from superposition of free atoms

     starting charge    7.99901, renormalised to    8.00000
     Starting wfcs are    8 randomized atomic wfcs

     total cpu time spent up to now is        0.0 secs

     Self-consistent Calculation

     iteration #  1     ecut=    30.00 Ry     beta= 0.70
     Davidson diagonalization with overlap
     ethr =  1.00E-02,  avg # of iterations =  2.0

     Threshold (ethr) on eigenvalues was too large:
     Diagonalizing with lowered threshold

     Davidson diagonalization with overlap
     ethr =  8.97E-04,  avg # of iterations =  1.0

     total cpu time spent up to now is        0.1 secs

     total energy              =     -15.82391290 Ry
     estimated scf accuracy    <       0.07892956 Ry

     iteration #  2     ecut=    30.00 Ry     beta= 0.70
     Davidson diagonalization with overlap
     ethr =  9.87E-04,  avg # of iterations =  1.1

     total cpu time spent up to now is        0.1 secs

     total energy              =     -15.82915334 Ry
     estimated scf accuracy    <       0.00223965 Ry

     iteration #  3     ecut=    30.00 Ry     beta= 0.70
     Davidson diagonalization with overlap
     ethr =  2.80E-05,  avg # of iterations =  2.7

     total cpu time spent up to now is        0.1 secs

     total energy              =     -15.82982559 Ry
     estimated scf accuracy    <       0.00009186 Ry

     iteration #  4     ecut=    30.00 Ry     beta= 0.70
     Davidson diagonalization with overlap
     ethr =  1.15E-06,  avg # of iterations =  2.5

     total cpu time spent up to now is        0.2 secs

     total energy              =     -15.82985562 Ry
     estimated scf accuracy    <       0.00000283 Ry

     iteration #  5     ecut=    30.00 Ry     beta= 0.70
     Davidson diagonalization with overlap
     ethr =  3.54E-08,  avg # of iterations =  4.2

     total cpu time spent up to now is        0.2 secs

     End of self-consistent calculation

          k =-0.1250 0.1250 0.1250 (   622 PWs)   bands (ev):

    -5.0012   6.2332   7.5866   7.5866

          k =-0.3750 0.3750-0.1250 (   627 PWs)   bands (ev):

    -3.7854   2.9150   5.2705   7.0648

          k = 0.3750-0.3750 0.6250 (   632 PWs)   bands (ev):

    -2.3538   0.3930   5.3921   6.1286

          k = 0.1250-0.1250 0.3750 (   627 PWs)   bands (ev):

    -4.3807   4.5227   6.3712   6.5744

          k =-0.1250 0.6250 0.1250 (   633 PWs)   bands (ev):

    -3.1647   2.7889   4.8080   5.3461

          k = 0.6250-0.1250 0.8750 (   642 PWs)   bands (ev):

    -1.1578   0.5532   3.0919   4.3968

          k = 0.3750 0.1250 0.6250 (   633 PWs)   bands (ev):

    -2.6454   1.6269   4.0970   5.6597

          k =-0.1250-0.8750 0.1250 (   638 PWs)   bands (ev):

    -1.4209   0.7045   3.8415   4.8030

          k =-0.3750 0.3750 0.3750 (   619 PWs)   bands (ev):

    -3.2485   1.3242   6.7002   6.7002

          k = 0.3750-0.3750 1.1250 (   636 PWs)   bands (ev):

    -1.7754   0.7029   3.2657   5.7404

     highest occupied level (ev):     7.5866

!    total energy              =     -15.82985756 Ry
     estimated scf accuracy    <       0.00000015 Ry

     The total energy is the sum of the following terms:
     one-electron contribution =       5.97090772 Ry
     hartree contribution      =       0.95806472 Ry
     xc contribution           =      -4.98794981 Ry
     ewald contribution        =     -17.77088019 Ry

     convergence has been achieved in   5 iterations

     Writing output data file /tmp/silicon.save/

     init_run     :      0.02s CPU      0.03s WALL (       1 calls)
     electrons    :      0.14s CPU      0.15s WALL (       1 calls)

     Called by init_run:
     wfcinit      :      0.01s CPU      0.01s WALL (       1 calls)
     potinit      :      0.00s CPU      0.00s WALL (       1 calls)
     hinit0       :      0.01s CPU      0.01s WALL (       1 calls)

     Called by electrons:
     c_bands      :      0.11s CPU      0.12s WALL (       6 calls)
     sum_band     :      0.02s CPU      0.02s WALL (       6 calls)
     v_of_rho     :      0.00s CPU      0.00s WALL (       6 calls)
     mix_rho      :      0.00s CPU      0.00s WALL (       6 calls)

     Called by c_bands:
     init_us_2    :      0.01s CPU      0.01s WALL (     130 calls)
     cegterg      :      0.11s CPU      0.12s WALL (      60 calls)

     Called by *egterg:
     cdiaghg      :      0.00s CPU      0.00s WALL (     185 calls)
     h_psi        :      0.10s CPU      0.11s WALL (     205 calls)
     g_psi        :      0.00s CPU      0.00s WALL (     135 calls)

     Called by h_psi:
     h_psi:calbec :      0.00s CPU      0.00s WALL (     205 calls)
     vloc_psi     :      0.10s CPU      0.10s WALL (     205 calls)
     add_vuspsi   :      0.00s CPU      0.00s WALL (     205 calls)

     General routines
     calbec       :      0.00s CPU      0.00s WALL (     205 calls)
     fft          :      0.00s CPU      0.00s WALL (      18 calls)
     ffts         :      0.00s CPU      0.00s WALL (       6 calls)
     fftw         :      0.10s CPU      0.10s WALL (    1768 calls)

     Parallel routines
     fft_scatt_xy :      0.01s CPU      0.01s WALL (    1792 calls)
     fft_scatt_yz :      0.02s CPU      0.02s WALL (    1792 calls)

     PWSCF        :      0.19s CPU      0.20s WALL


   This run was terminated on:  21:23:51  17May2021            

=------------------------------------------------------------------------------=
   JOB DONE.
=------------------------------------------------------------------------------=
