### Running on host: qe2021

     Program PWSCF v.6.7MaX starts on 17May2021 at 21:23:54 

     This program is part of the open-source Quantum ESPRESSO suite
     for quantum simulation of materials; please cite
         "P. Giannozzi et al., J. Phys.:Condens. Matter 21 395502 (2009);
         "P. Giannozzi et al., J. Phys.:Condens. Matter 29 465901 (2017);
          URL http://www.quantum-espresso.org", 
     in publications or presentations arising from this work. More details at
     http://www.quantum-espresso.org/quote

     Parallel version (MPI), running on     2 processors

     MPI processes distributed on     1 nodes
     R & G space division:  proc/nbgrp/npool/nimage =       2
     Reading input from pw.Si.scf.alat-10.2.in

     Current dimensions of program PWSCF are:
     Max number of different atomic species (ntypx) = 10
     Max number of k-points (npk) =  40000
     Max angular momentum in pseudopotentials (lmaxx) =  3

     Subspace diagonalization in iterative solution of the eigenvalue problem:
     a serial algorithm will be used


     Parallelization info
     --------------------
     sticks:   dense  smooth     PW     G-vecs:    dense   smooth      PW
     Min         216     216     69                 2980     2980     533
     Max         217     217     70                 2981     2981     534
     Sum         433     433    139                 5961     5961    1067



     bravais-lattice index     =            2
     lattice parameter (alat)  =      10.2000  a.u.
     unit-cell volume          =     265.3020 (a.u.)^3
     number of atoms/cell      =            2
     number of atomic types    =            1
     number of electrons       =         8.00
     number of Kohn-Sham states=            4
     kinetic-energy cutoff     =      30.0000  Ry
     charge density cutoff     =     120.0000  Ry
     scf convergence threshold =      1.0E-06
     mixing beta               =       0.7000
     number of iterations used =            8  plain     mixing
     Exchange-correlation= SLA  PZ   NOGX NOGC
                           (   1   1   0   0   0   0   0)

     celldm(1)=  10.200000  celldm(2)=   0.000000  celldm(3)=   0.000000
     celldm(4)=   0.000000  celldm(5)=   0.000000  celldm(6)=   0.000000

     crystal axes: (cart. coord. in units of alat)
               a(1) = (  -0.500000   0.000000   0.500000 )  
               a(2) = (   0.000000   0.500000   0.500000 )  
               a(3) = (  -0.500000   0.500000   0.000000 )  

     reciprocal axes: (cart. coord. in units 2 pi/alat)
               b(1) = ( -1.000000 -1.000000  1.000000 )  
               b(2) = (  1.000000  1.000000  1.000000 )  
               b(3) = ( -1.000000  1.000000 -1.000000 )  


     PseudoPot. # 1 for Si read from file:
     /home/user/QE-2021/pseudo/Si.pz-vbc.UPF
     MD5 check sum: a974d1b8727157e37210f3f86afb6210
     Pseudo is Norm-conserving, Zval =  4.0
     Generated by new atomic code, or converted to UPF format
     Using radial grid of  431 points,  2 beta functions with: 
                l(1) =   0
                l(2) =   1

     atomic species   valence    mass     pseudopotential
        Si             4.00    28.08600     Si( 1.00)

     48 Sym. Ops., with inversion, found (24 have fractional translation)



   Cartesian axes

     site n.     atom                  positions (alat units)
         1           Si  tau(   1) = (   0.0000000   0.0000000   0.0000000  )
         2           Si  tau(   2) = (   0.2500000   0.2500000   0.2500000  )

     number of k points=    10
                       cart. coord. in units 2pi/alat
        k(    1) = (  -0.1250000   0.1250000   0.1250000), wk =   0.0625000
        k(    2) = (  -0.3750000   0.3750000  -0.1250000), wk =   0.1875000
        k(    3) = (   0.3750000  -0.3750000   0.6250000), wk =   0.1875000
        k(    4) = (   0.1250000  -0.1250000   0.3750000), wk =   0.1875000
        k(    5) = (  -0.1250000   0.6250000   0.1250000), wk =   0.1875000
        k(    6) = (   0.6250000  -0.1250000   0.8750000), wk =   0.3750000
        k(    7) = (   0.3750000   0.1250000   0.6250000), wk =   0.3750000
        k(    8) = (  -0.1250000  -0.8750000   0.1250000), wk =   0.1875000
        k(    9) = (  -0.3750000   0.3750000   0.3750000), wk =   0.0625000
        k(   10) = (   0.3750000  -0.3750000   1.1250000), wk =   0.1875000

     Dense  grid:     5961 G-vectors     FFT dimensions: (  32,  32,  32)

     Estimated max dynamical RAM per process >       2.82 MB

     Estimated total dynamical RAM >       5.65 MB

     Initial potential from superposition of free atoms

     starting charge    7.99901, renormalised to    8.00000
     Starting wfcs are    8 randomized atomic wfcs

     total cpu time spent up to now is        0.1 secs

     Self-consistent Calculation

     iteration #  1     ecut=    30.00 Ry     beta= 0.70
     Davidson diagonalization with overlap
     ethr =  1.00E-02,  avg # of iterations =  2.0

     Threshold (ethr) on eigenvalues was too large:
     Diagonalizing with lowered threshold

     Davidson diagonalization with overlap
     ethr =  6.94E-04,  avg # of iterations =  1.1

     total cpu time spent up to now is        0.2 secs

     total energy              =     -15.84844393 Ry
     estimated scf accuracy    <       0.06124555 Ry

     iteration #  2     ecut=    30.00 Ry     beta= 0.70
     Davidson diagonalization with overlap
     ethr =  7.66E-04,  avg # of iterations =  1.0

     total cpu time spent up to now is        0.2 secs

     total energy              =     -15.85167867 Ry
     estimated scf accuracy    <       0.00221741 Ry

     iteration #  3     ecut=    30.00 Ry     beta= 0.70
     Davidson diagonalization with overlap
     ethr =  2.77E-05,  avg # of iterations =  2.5

     total cpu time spent up to now is        0.2 secs

     total energy              =     -15.85216225 Ry
     estimated scf accuracy    <       0.00007473 Ry

     iteration #  4     ecut=    30.00 Ry     beta= 0.70
     Davidson diagonalization with overlap
     ethr =  9.34E-07,  avg # of iterations =  2.8

     total cpu time spent up to now is        0.3 secs

     total energy              =     -15.85218902 Ry
     estimated scf accuracy    <       0.00000298 Ry

     iteration #  5     ecut=    30.00 Ry     beta= 0.70
     Davidson diagonalization with overlap
     ethr =  3.72E-08,  avg # of iterations =  3.9

     total cpu time spent up to now is        0.3 secs

     End of self-consistent calculation

          k =-0.1250 0.1250 0.1250 (   734 PWs)   bands (ev):

    -5.6127   4.6306   5.9373   5.9373

          k =-0.3750 0.3750-0.1250 (   741 PWs)   bands (ev):

    -4.5475   1.5817   3.8800   5.4485

          k = 0.3750-0.3750 0.6250 (   738 PWs)   bands (ev):

    -3.3450  -0.5908   3.9225   4.6444

          k = 0.1250-0.1250 0.3750 (   738 PWs)   bands (ev):

    -5.0663   3.0051   4.8885   4.9758

          k =-0.1250 0.6250 0.1250 (   734 PWs)   bands (ev):

    -3.9978   1.2992   3.5072   3.9832

          k = 0.6250-0.1250 0.8750 (   731 PWs)   bands (ev):

    -2.2821  -0.7122   2.0725   3.2033

          k = 0.3750 0.1250 0.6250 (   738 PWs)   bands (ev):

    -3.5597   0.3656   2.8476   4.2642

          k =-0.1250-0.8750 0.1250 (   739 PWs)   bands (ev):

    -2.4715  -0.6037   2.7165   3.5000

          k =-0.3750 0.3750 0.3750 (   748 PWs)   bands (ev):

    -4.0919   0.2242   5.1299   5.1299

          k = 0.3750-0.3750 1.1250 (   731 PWs)   bands (ev):

    -2.8337  -0.4466   2.1540   4.3130

     highest occupied level (ev):     5.9373

!    total energy              =     -15.85219074 Ry
     estimated scf accuracy    <       0.00000012 Ry

     The total energy is the sum of the following terms:
     one-electron contribution =       4.78599718 Ry
     hartree contribution      =       1.07872574 Ry
     xc contribution           =      -4.81715506 Ry
     ewald contribution        =     -16.89975860 Ry

     convergence has been achieved in   5 iterations

     Writing output data file /tmp/silicon.save/

     init_run     :      0.08s CPU      0.09s WALL (       1 calls)
     electrons    :      0.17s CPU      0.20s WALL (       1 calls)

     Called by init_run:
     wfcinit      :      0.03s CPU      0.04s WALL (       1 calls)
     potinit      :      0.01s CPU      0.01s WALL (       1 calls)
     hinit0       :      0.03s CPU      0.03s WALL (       1 calls)

     Called by electrons:
     c_bands      :      0.14s CPU      0.16s WALL (       6 calls)
     sum_band     :      0.03s CPU      0.03s WALL (       6 calls)
     v_of_rho     :      0.01s CPU      0.01s WALL (       6 calls)
     mix_rho      :      0.00s CPU      0.00s WALL (       6 calls)

     Called by c_bands:
     init_us_2    :      0.01s CPU      0.01s WALL (     130 calls)
     cegterg      :      0.13s CPU      0.15s WALL (      60 calls)

     Called by *egterg:
     cdiaghg      :      0.00s CPU      0.00s WALL (     183 calls)
     h_psi        :      0.15s CPU      0.16s WALL (     203 calls)
     g_psi        :      0.00s CPU      0.00s WALL (     133 calls)

     Called by h_psi:
     h_psi:calbec :      0.00s CPU      0.00s WALL (     203 calls)
     vloc_psi     :      0.14s CPU      0.15s WALL (     203 calls)
     add_vuspsi   :      0.00s CPU      0.00s WALL (     203 calls)

     General routines
     calbec       :      0.00s CPU      0.00s WALL (     203 calls)
     fft          :      0.00s CPU      0.00s WALL (      18 calls)
     ffts         :      0.00s CPU      0.00s WALL (       6 calls)
     fftw         :      0.12s CPU      0.14s WALL (    1750 calls)

     Parallel routines
     fft_scatt_xy :      0.03s CPU      0.03s WALL (    1774 calls)
     fft_scatt_yz :      0.03s CPU      0.03s WALL (    1774 calls)

     PWSCF        :      0.30s CPU      0.34s WALL


   This run was terminated on:  21:23:54  17May2021            

=------------------------------------------------------------------------------=
   JOB DONE.
=------------------------------------------------------------------------------=
