### Running on host: qe2021

     Program PWSCF v.6.7MaX starts on 17May2021 at 21:23:58 

     This program is part of the open-source Quantum ESPRESSO suite
     for quantum simulation of materials; please cite
         "P. Giannozzi et al., J. Phys.:Condens. Matter 21 395502 (2009);
         "P. Giannozzi et al., J. Phys.:Condens. Matter 29 465901 (2017);
          URL http://www.quantum-espresso.org", 
     in publications or presentations arising from this work. More details at
     http://www.quantum-espresso.org/quote

     Parallel version (MPI), running on     2 processors

     MPI processes distributed on     1 nodes
     R & G space division:  proc/nbgrp/npool/nimage =       2
     Reading input from pw.Si.scf.alat-10.7.in

     Current dimensions of program PWSCF are:
     Max number of different atomic species (ntypx) = 10
     Max number of k-points (npk) =  40000
     Max angular momentum in pseudopotentials (lmaxx) =  3

     Subspace diagonalization in iterative solution of the eigenvalue problem:
     a serial algorithm will be used


     Parallelization info
     --------------------
     sticks:   dense  smooth     PW     G-vecs:    dense   smooth      PW
     Min         237     237     75                 3426     3426     620
     Max         238     238     76                 3429     3429     623
     Sum         475     475    151                 6855     6855    1243



     bravais-lattice index     =            2
     lattice parameter (alat)  =      10.7000  a.u.
     unit-cell volume          =     306.2607 (a.u.)^3
     number of atoms/cell      =            2
     number of atomic types    =            1
     number of electrons       =         8.00
     number of Kohn-Sham states=            4
     kinetic-energy cutoff     =      30.0000  Ry
     charge density cutoff     =     120.0000  Ry
     scf convergence threshold =      1.0E-06
     mixing beta               =       0.7000
     number of iterations used =            8  plain     mixing
     Exchange-correlation= SLA  PZ   NOGX NOGC
                           (   1   1   0   0   0   0   0)

     celldm(1)=  10.700000  celldm(2)=   0.000000  celldm(3)=   0.000000
     celldm(4)=   0.000000  celldm(5)=   0.000000  celldm(6)=   0.000000

     crystal axes: (cart. coord. in units of alat)
               a(1) = (  -0.500000   0.000000   0.500000 )  
               a(2) = (   0.000000   0.500000   0.500000 )  
               a(3) = (  -0.500000   0.500000   0.000000 )  

     reciprocal axes: (cart. coord. in units 2 pi/alat)
               b(1) = ( -1.000000 -1.000000  1.000000 )  
               b(2) = (  1.000000  1.000000  1.000000 )  
               b(3) = ( -1.000000  1.000000 -1.000000 )  


     PseudoPot. # 1 for Si read from file:
     /home/user/QE-2021/pseudo/Si.pz-vbc.UPF
     MD5 check sum: a974d1b8727157e37210f3f86afb6210
     Pseudo is Norm-conserving, Zval =  4.0
     Generated by new atomic code, or converted to UPF format
     Using radial grid of  431 points,  2 beta functions with: 
                l(1) =   0
                l(2) =   1

     atomic species   valence    mass     pseudopotential
        Si             4.00    28.08600     Si( 1.00)

     48 Sym. Ops., with inversion, found (24 have fractional translation)



   Cartesian axes

     site n.     atom                  positions (alat units)
         1           Si  tau(   1) = (   0.0000000   0.0000000   0.0000000  )
         2           Si  tau(   2) = (   0.2500000   0.2500000   0.2500000  )

     number of k points=    10
                       cart. coord. in units 2pi/alat
        k(    1) = (  -0.1250000   0.1250000   0.1250000), wk =   0.0625000
        k(    2) = (  -0.3750000   0.3750000  -0.1250000), wk =   0.1875000
        k(    3) = (   0.3750000  -0.3750000   0.6250000), wk =   0.1875000
        k(    4) = (   0.1250000  -0.1250000   0.3750000), wk =   0.1875000
        k(    5) = (  -0.1250000   0.6250000   0.1250000), wk =   0.1875000
        k(    6) = (   0.6250000  -0.1250000   0.8750000), wk =   0.3750000
        k(    7) = (   0.3750000   0.1250000   0.6250000), wk =   0.3750000
        k(    8) = (  -0.1250000  -0.8750000   0.1250000), wk =   0.1875000
        k(    9) = (  -0.3750000   0.3750000   0.3750000), wk =   0.0625000
        k(   10) = (   0.3750000  -0.3750000   1.1250000), wk =   0.1875000

     Dense  grid:     6855 G-vectors     FFT dimensions: (  32,  32,  32)

     Estimated max dynamical RAM per process >       3.07 MB

     Estimated total dynamical RAM >       6.14 MB

     Initial potential from superposition of free atoms

     starting charge    7.99901, renormalised to    8.00000
     Starting wfcs are    8 randomized atomic wfcs

     total cpu time spent up to now is        0.1 secs

     Self-consistent Calculation

     iteration #  1     ecut=    30.00 Ry     beta= 0.70
     Davidson diagonalization with overlap
     ethr =  1.00E-02,  avg # of iterations =  2.0

     Threshold (ethr) on eigenvalues was too large:
     Diagonalizing with lowered threshold

     Davidson diagonalization with overlap
     ethr =  5.32E-04,  avg # of iterations =  1.3

     total cpu time spent up to now is        0.2 secs

     total energy              =     -15.83477254 Ry
     estimated scf accuracy    <       0.04718370 Ry

     iteration #  2     ecut=    30.00 Ry     beta= 0.70
     Davidson diagonalization with overlap
     ethr =  5.90E-04,  avg # of iterations =  1.0

     total cpu time spent up to now is        0.2 secs

     total energy              =     -15.83655623 Ry
     estimated scf accuracy    <       0.00215528 Ry

     iteration #  3     ecut=    30.00 Ry     beta= 0.70
     Davidson diagonalization with overlap
     ethr =  2.69E-05,  avg # of iterations =  2.0

     total cpu time spent up to now is        0.3 secs

     total energy              =     -15.83684408 Ry
     estimated scf accuracy    <       0.00004807 Ry

     iteration #  4     ecut=    30.00 Ry     beta= 0.70
     Davidson diagonalization with overlap
     ethr =  6.01E-07,  avg # of iterations =  4.5

     total cpu time spent up to now is        0.3 secs

     End of self-consistent calculation

          k =-0.1250 0.1250 0.1250 (   869 PWs)   bands (ev):

    -6.1215   3.2224   4.5594   4.5594

          k =-0.3750 0.3750-0.1250 (   850 PWs)   bands (ev):

    -5.1876   0.4101   2.7320   4.1078

          k = 0.3750-0.3750 0.6250 (   846 PWs)   bands (ev):

    -4.1729  -1.4596   2.7097   3.4133

          k = 0.1250-0.1250 0.3750 (   860 PWs)   bands (ev):

    -5.6399   1.6617   3.6521   3.6606

          k =-0.1250 0.6250 0.1250 (   847 PWs)   bands (ev):

    -4.7003   0.0115   2.4357   2.8521

          k = 0.6250-0.1250 0.8750 (   847 PWs)   bands (ev):

    -3.2267  -1.7946   1.2299   2.2058

          k = 0.3750 0.1250 0.6250 (   850 PWs)   bands (ev):

    -4.3303  -0.7409   1.8323   3.1017

          k =-0.1250-0.8750 0.1250 (   843 PWs)   bands (ev):

    -3.3621  -1.7156   1.7796   2.4223

          k =-0.3750 0.3750 0.3750 (   851 PWs)   bands (ev):

    -4.8008  -0.7327   3.8291   3.8291

          k = 0.3750-0.3750 1.1250 (   843 PWs)   bands (ev):

    -3.7199  -1.4609   1.2530   3.1291

     highest occupied level (ev):     4.5594

!    total energy              =     -15.83687865 Ry
     estimated scf accuracy    <       0.00000002 Ry

     The total energy is the sum of the following terms:
     one-electron contribution =       3.73843024 Ry
     hartree contribution      =       1.20149515 Ry
     xc contribution           =      -4.66675378 Ry
     ewald contribution        =     -16.11005026 Ry

     convergence has been achieved in   4 iterations

     Writing output data file /tmp/silicon.save/

     init_run     :      0.07s CPU      0.08s WALL (       1 calls)
     electrons    :      0.14s CPU      0.17s WALL (       1 calls)

     Called by init_run:
     wfcinit      :      0.03s CPU      0.03s WALL (       1 calls)
     potinit      :      0.00s CPU      0.01s WALL (       1 calls)
     hinit0       :      0.02s CPU      0.02s WALL (       1 calls)

     Called by electrons:
     c_bands      :      0.11s CPU      0.13s WALL (       5 calls)
     sum_band     :      0.02s CPU      0.03s WALL (       5 calls)
     v_of_rho     :      0.01s CPU      0.01s WALL (       5 calls)
     mix_rho      :      0.00s CPU      0.00s WALL (       5 calls)

     Called by c_bands:
     init_us_2    :      0.01s CPU      0.01s WALL (     110 calls)
     cegterg      :      0.10s CPU      0.12s WALL (      50 calls)

     Called by *egterg:
     cdiaghg      :      0.00s CPU      0.00s WALL (     148 calls)
     h_psi        :      0.12s CPU      0.13s WALL (     168 calls)
     g_psi        :      0.00s CPU      0.00s WALL (     108 calls)

     Called by h_psi:
     h_psi:calbec :      0.00s CPU      0.00s WALL (     168 calls)
     vloc_psi     :      0.11s CPU      0.13s WALL (     168 calls)
     add_vuspsi   :      0.00s CPU      0.00s WALL (     168 calls)

     General routines
     calbec       :      0.00s CPU      0.00s WALL (     168 calls)
     fft          :      0.00s CPU      0.00s WALL (      15 calls)
     ffts         :      0.00s CPU      0.00s WALL (       5 calls)
     fftw         :      0.10s CPU      0.11s WALL (    1430 calls)

     Parallel routines
     fft_scatt_xy :      0.02s CPU      0.02s WALL (    1450 calls)
     fft_scatt_yz :      0.02s CPU      0.02s WALL (    1450 calls)

     PWSCF        :      0.26s CPU      0.30s WALL


   This run was terminated on:  21:23:58  17May2021            

=------------------------------------------------------------------------------=
   JOB DONE.
=------------------------------------------------------------------------------=
