 CRYSTAL
 PRIMVEC
   -1.984414532    0.000000000    1.984414532
    0.000000000    1.984414532    1.984414532
   -1.984414532    1.984414532    0.000000000
 PRIMCOORD
           1           1
Al        0.000000000    0.000000000    0.000000000
BEGIN_BLOCK_DATAGRID_3D
3D_PWSCF
DATAGRID_3D_UNKNOWN
          13          13          13
  0.000000  0.000000  0.000000
   -1.984415    0.000000    1.984415
    0.000000    1.984415    1.984415
   -1.984415    1.984415    0.000000
  0.508778E-03  0.318083E-02  0.129266E-01  0.261683E-01  0.333019E-01  0.329696E-01
  0.316716E-01  0.329696E-01  0.333019E-01  0.261683E-01  0.129266E-01  0.318083E-02
  0.508778E-03  0.318083E-02  0.961836E-02  0.217339E-01  0.316093E-01  0.335925E-01
  0.317232E-01  0.317232E-01  0.335925E-01  0.316093E-01  0.217339E-01  0.961836E-02
  0.318083E-02  0.318083E-02  0.129266E-01  0.217339E-01  0.306651E-01  0.337009E-01
  0.318278E-01  0.303512E-01  0.318278E-01  0.337009E-01  0.306651E-01  0.217339E-01
  0.129266E-01  0.961836E-02  0.129266E-01  0.261683E-01  0.316093E-01  0.337009E-01
  0.318807E-01  0.294935E-01  0.294935E-01  0.318807E-01  0.337009E-01  0.316093E-01
  0.261683E-01  0.217339E-01  0.217339E-01  0.261683E-01  0.333019E-01  0.335925E-01
  0.318278E-01  0.294935E-01  0.284663E-01  0.294935E-01  0.318278E-01  0.335925E-01
  0.333019E-01  0.316093E-01  0.306651E-01  0.316093E-01  0.333019E-01  0.329696E-01
  0.317232E-01  0.303512E-01  0.294935E-01  0.294935E-01  0.303512E-01  0.317232E-01
  0.329696E-01  0.335925E-01  0.337009E-01  0.337009E-01  0.335925E-01  0.329696E-01
  0.316716E-01  0.317232E-01  0.318278E-01  0.318807E-01  0.318278E-01  0.317232E-01
  0.316716E-01  0.317232E-01  0.318278E-01  0.318807E-01  0.318278E-01  0.317232E-01
  0.316716E-01  0.329696E-01  0.335925E-01  0.337009E-01  0.337009E-01  0.335925E-01
  0.329696E-01  0.317232E-01  0.303512E-01  0.294935E-01  0.294935E-01  0.303512E-01
  0.317232E-01  0.329696E-01  0.333019E-01  0.316093E-01  0.306651E-01  0.316093E-01
  0.333019E-01  0.335925E-01  0.318278E-01  0.294935E-01  0.284663E-01  0.294935E-01
  0.318278E-01  0.335925E-01  0.333019E-01  0.261683E-01  0.217339E-01  0.217339E-01
  0.261683E-01  0.316093E-01  0.337009E-01  0.318807E-01  0.294935E-01  0.294935E-01
  0.318807E-01  0.337009E-01  0.316093E-01  0.261683E-01  0.129266E-01  0.961836E-02
  0.129266E-01  0.217339E-01  0.306651E-01  0.337009E-01  0.318278E-01  0.303512E-01
  0.318278E-01  0.337009E-01  0.306651E-01  0.217339E-01  0.129266E-01  0.318083E-02
  0.318083E-02  0.961836E-02  0.217339E-01  0.316093E-01  0.335925E-01  0.317232E-01
  0.317232E-01  0.335925E-01  0.316093E-01  0.217339E-01  0.961836E-02  0.318083E-02
  0.508778E-03  0.318083E-02  0.129266E-01  0.261683E-01  0.333019E-01  0.329696E-01
  0.316716E-01  0.329696E-01  0.333019E-01  0.261683E-01  0.129266E-01  0.318083E-02
  0.508778E-03  0.318083E-02  0.961836E-02  0.217339E-01  0.316093E-01  0.335925E-01
  0.317232E-01  0.317232E-01  0.335925E-01  0.316093E-01  0.217339E-01  0.961836E-02
  0.318083E-02  0.318083E-02  0.961836E-02  0.192727E-01  0.298773E-01  0.342321E-01
  0.327821E-01  0.313317E-01  0.327821E-01  0.342321E-01  0.298773E-01  0.192727E-01
  0.961836E-02  0.621408E-02  0.961836E-02  0.217339E-01  0.298773E-01  0.343331E-01
  0.334275E-01  0.310563E-01  0.310563E-01  0.334275E-01  0.343331E-01  0.298773E-01
  0.217339E-01  0.157943E-01  0.157943E-01  0.217339E-01  0.316093E-01  0.342321E-01
  0.334275E-01  0.309723E-01  0.297507E-01  0.309723E-01  0.334275E-01  0.342321E-01
  0.316093E-01  0.274430E-01  0.254705E-01  0.274430E-01  0.316093E-01  0.335925E-01
  0.327821E-01  0.310563E-01  0.297507E-01  0.297507E-01  0.310563E-01  0.327821E-01
  0.335925E-01  0.329519E-01  0.319135E-01  0.319135E-01  0.329519E-01  0.335925E-01
  0.317232E-01  0.313317E-01  0.310563E-01  0.309723E-01  0.310563E-01  0.313317E-01
  0.317232E-01  0.319795E-01  0.319821E-01  0.319285E-01  0.319821E-01  0.319795E-01
  0.317232E-01  0.317232E-01  0.327821E-01  0.334275E-01  0.334275E-01  0.327821E-01
  0.317232E-01  0.306000E-01  0.297223E-01  0.292599E-01  0.292599E-01  0.297223E-01
  0.306000E-01  0.317232E-01  0.335925E-01  0.342321E-01  0.343331E-01  0.342321E-01
  0.335925E-01  0.319795E-01  0.297223E-01  0.277986E-01  0.270577E-01  0.277986E-01
  0.297223E-01  0.319795E-01  0.335925E-01  0.316093E-01  0.298773E-01  0.298773E-01
  0.316093E-01  0.329519E-01  0.319821E-01  0.292599E-01  0.270577E-01  0.270577E-01
  0.292599E-01  0.319821E-01  0.329519E-01  0.316093E-01  0.217339E-01  0.192727E-01
  0.217339E-01  0.274430E-01  0.319135E-01  0.319285E-01  0.292599E-01  0.277986E-01
  0.292599E-01  0.319285E-01  0.319135E-01  0.274430E-01  0.217339E-01  0.961836E-02
  0.961836E-02  0.157943E-01  0.254705E-01  0.319135E-01  0.319821E-01  0.297223E-01
  0.297223E-01  0.319821E-01  0.319135E-01  0.254705E-01  0.157943E-01  0.961836E-02
  0.318083E-02  0.621408E-02  0.157943E-01  0.274430E-01  0.329519E-01  0.319795E-01
  0.306000E-01  0.319795E-01  0.329519E-01  0.274430E-01  0.157943E-01  0.621408E-02
  0.318083E-02  0.318083E-02  0.961836E-02  0.217339E-01  0.316093E-01  0.335925E-01
  0.317232E-01  0.317232E-01  0.335925E-01  0.316093E-01  0.217339E-01  0.961836E-02
  0.318083E-02  0.318083E-02  0.129266E-01  0.217339E-01  0.306651E-01  0.337009E-01
  0.318278E-01  0.303512E-01  0.318278E-01  0.337009E-01  0.306651E-01  0.217339E-01
  0.129266E-01  0.961836E-02  0.129266E-01  0.217339E-01  0.298773E-01  0.343331E-01
  0.334275E-01  0.310563E-01  0.310563E-01  0.334275E-01  0.343331E-01  0.298773E-01
  0.217339E-01  0.157943E-01  0.157943E-01  0.217339E-01  0.306651E-01  0.343331E-01
  0.340216E-01  0.315716E-01  0.302854E-01  0.315716E-01  0.340216E-01  0.343331E-01
  0.306651E-01  0.254705E-01  0.230916E-01  0.254705E-01  0.306651E-01  0.337009E-01
  0.334275E-01  0.315716E-01  0.299866E-01  0.299866E-01  0.315716E-01  0.334275E-01
  0.337009E-01  0.319135E-01  0.299134E-01  0.299134E-01  0.319135E-01  0.337009E-01
  0.318278E-01  0.310563E-01  0.302854E-01  0.299866E-01  0.302854E-01  0.310563E-01
  0.318278E-01  0.319821E-01  0.315088E-01  0.311807E-01  0.315088E-01  0.319821E-01
  0.318278E-01  0.303512E-01  0.310563E-01  0.315716E-01  0.315716E-01  0.310563E-01
  0.303512E-01  0.297223E-01  0.292293E-01  0.289268E-01  0.289268E-01  0.292293E-01
  0.297223E-01  0.303512E-01  0.318278E-01  0.334275E-01  0.340216E-01  0.334275E-01
  0.318278E-01  0.297223E-01  0.277466E-01  0.264051E-01  0.259395E-01  0.264051E-01
  0.277466E-01  0.297223E-01  0.318278E-01  0.337009E-01  0.343331E-01  0.343331E-01
  0.337009E-01  0.319821E-01  0.292293E-01  0.264051E-01  0.246690E-01  0.246690E-01
  0.264051E-01  0.292293E-01  0.319821E-01  0.337009E-01  0.306651E-01  0.298773E-01
  0.306651E-01  0.319135E-01  0.315088E-01  0.289268E-01  0.259395E-01  0.246690E-01
  0.259395E-01  0.289268E-01  0.315088E-01  0.319135E-01  0.306651E-01  0.217339E-01
  0.217339E-01  0.254705E-01  0.299134E-01  0.311807E-01  0.289268E-01  0.264051E-01
  0.264051E-01  0.289268E-01  0.311807E-01  0.299134E-01  0.254705E-01  0.217339E-01
  0.129266E-01  0.157943E-01  0.230916E-01  0.299134E-01  0.315088E-01  0.292293E-01
  0.277466E-01  0.292293E-01  0.315088E-01  0.299134E-01  0.230916E-01  0.157943E-01
  0.129266E-01  0.961836E-02  0.157943E-01  0.254705E-01  0.319135E-01  0.319821E-01
  0.297223E-01  0.297223E-01  0.319821E-01  0.319135E-01  0.254705E-01  0.157943E-01
  0.961836E-02  0.961836E-02  0.129266E-01  0.217339E-01  0.306651E-01  0.337009E-01
  0.318278E-01  0.303512E-01  0.318278E-01  0.337009E-01  0.306651E-01  0.217339E-01
  0.129266E-01  0.961836E-02  0.129266E-01  0.261683E-01  0.316093E-01  0.337009E-01
  0.318807E-01  0.294935E-01  0.294935E-01  0.318807E-01  0.337009E-01  0.316093E-01
  0.261683E-01  0.217339E-01  0.217339E-01  0.261683E-01  0.316093E-01  0.342321E-01
  0.334275E-01  0.309723E-01  0.297507E-01  0.309723E-01  0.334275E-01  0.342321E-01
  0.316093E-01  0.274430E-01  0.254705E-01  0.274430E-01  0.316093E-01  0.337009E-01
  0.334275E-01  0.315716E-01  0.299866E-01  0.299866E-01  0.315716E-01  0.334275E-01
  0.337009E-01  0.319135E-01  0.299134E-01  0.299134E-01  0.319135E-01  0.337009E-01
  0.318807E-01  0.309723E-01  0.299866E-01  0.295907E-01  0.299866E-01  0.309723E-01
  0.318807E-01  0.319285E-01  0.311807E-01  0.307038E-01  0.311807E-01  0.319285E-01
  0.318807E-01  0.294935E-01  0.297507E-01  0.299866E-01  0.299866E-01  0.297507E-01
  0.294935E-01  0.292599E-01  0.289268E-01  0.286058E-01  0.286058E-01  0.289268E-01
  0.292599E-01  0.294935E-01  0.294935E-01  0.309723E-01  0.315716E-01  0.309723E-01
  0.294935E-01  0.277986E-01  0.264051E-01  0.255315E-01  0.252361E-01  0.255315E-01
  0.264051E-01  0.277986E-01  0.294935E-01  0.318807E-01  0.334275E-01  0.334275E-01
  0.318807E-01  0.292599E-01  0.264051E-01  0.241501E-01  0.229622E-01  0.229622E-01
  0.241501E-01  0.264051E-01  0.292599E-01  0.318807E-01  0.337009E-01  0.342321E-01
  0.337009E-01  0.319285E-01  0.289268E-01  0.255315E-01  0.229622E-01  0.220276E-01
  0.229622E-01  0.255315E-01  0.289268E-01  0.319285E-01  0.337009E-01  0.316093E-01
  0.316093E-01  0.319135E-01  0.311807E-01  0.286058E-01  0.252361E-01  0.229622E-01
  0.229622E-01  0.252361E-01  0.286058E-01  0.311807E-01  0.319135E-01  0.316093E-01
  0.261683E-01  0.274430E-01  0.299134E-01  0.307038E-01  0.286058E-01  0.255315E-01
  0.241501E-01  0.255315E-01  0.286058E-01  0.307038E-01  0.299134E-01  0.274430E-01
  0.261683E-01  0.217339E-01  0.254705E-01  0.299134E-01  0.311807E-01  0.289268E-01
  0.264051E-01  0.264051E-01  0.289268E-01  0.311807E-01  0.299134E-01  0.254705E-01
  0.217339E-01  0.217339E-01  0.217339E-01  0.274430E-01  0.319135E-01  0.319285E-01
  0.292599E-01  0.277986E-01  0.292599E-01  0.319285E-01  0.319135E-01  0.274430E-01
  0.217339E-01  0.192727E-01  0.217339E-01  0.261683E-01  0.316093E-01  0.337009E-01
  0.318807E-01  0.294935E-01  0.294935E-01  0.318807E-01  0.337009E-01  0.316093E-01
  0.261683E-01  0.217339E-01  0.217339E-01  0.261683E-01  0.333019E-01  0.335925E-01
  0.318278E-01  0.294935E-01  0.284663E-01  0.294935E-01  0.318278E-01  0.335925E-01
  0.333019E-01  0.316093E-01  0.306651E-01  0.316093E-01  0.333019E-01  0.335925E-01
  0.327821E-01  0.310563E-01  0.297507E-01  0.297507E-01  0.310563E-01  0.327821E-01
  0.335925E-01  0.329519E-01  0.319135E-01  0.319135E-01  0.329519E-01  0.335925E-01
  0.318278E-01  0.310563E-01  0.302854E-01  0.299866E-01  0.302854E-01  0.310563E-01
  0.318278E-01  0.319821E-01  0.315088E-01  0.311807E-01  0.315088E-01  0.319821E-01
  0.318278E-01  0.294935E-01  0.297507E-01  0.299866E-01  0.299866E-01  0.297507E-01
  0.294935E-01  0.292599E-01  0.289268E-01  0.286058E-01  0.286058E-01  0.289268E-01
  0.292599E-01  0.294935E-01  0.284663E-01  0.297507E-01  0.302854E-01  0.297507E-01
  0.284663E-01  0.270577E-01  0.259395E-01  0.252361E-01  0.249919E-01  0.252361E-01
  0.259395E-01  0.270577E-01  0.284663E-01  0.294935E-01  0.310563E-01  0.310563E-01
  0.294935E-01  0.270577E-01  0.246690E-01  0.229622E-01  0.221282E-01  0.221282E-01
  0.229622E-01  0.246690E-01  0.270577E-01  0.294935E-01  0.318278E-01  0.327821E-01
  0.318278E-01  0.292599E-01  0.259395E-01  0.229622E-01  0.210683E-01  0.204449E-01
  0.210683E-01  0.229622E-01  0.259395E-01  0.292599E-01  0.318278E-01  0.335925E-01
  0.335925E-01  0.319821E-01  0.289268E-01  0.252361E-01  0.221282E-01  0.204449E-01
  0.204449E-01  0.221282E-01  0.252361E-01  0.289268E-01  0.319821E-01  0.335925E-01
  0.333019E-01  0.329519E-01  0.315088E-01  0.286058E-01  0.249919E-01  0.221282E-01
  0.210683E-01  0.221282E-01  0.249919E-01  0.286058E-01  0.315088E-01  0.329519E-01
  0.333019E-01  0.316093E-01  0.319135E-01  0.311807E-01  0.286058E-01  0.252361E-01
  0.229622E-01  0.229622E-01  0.252361E-01  0.286058E-01  0.311807E-01  0.319135E-01
  0.316093E-01  0.316093E-01  0.306651E-01  0.319135E-01  0.315088E-01  0.289268E-01
  0.259395E-01  0.246690E-01  0.259395E-01  0.289268E-01  0.315088E-01  0.319135E-01
  0.306651E-01  0.298773E-01  0.306651E-01  0.316093E-01  0.329519E-01  0.319821E-01
  0.292599E-01  0.270577E-01  0.270577E-01  0.292599E-01  0.319821E-01  0.329519E-01
  0.316093E-01  0.298773E-01  0.298773E-01  0.316093E-01  0.333019E-01  0.335925E-01
  0.318278E-01  0.294935E-01  0.284663E-01  0.294935E-01  0.318278E-01  0.335925E-01
  0.333019E-01  0.316093E-01  0.306651E-01  0.316093E-01  0.333019E-01  0.329696E-01
  0.317232E-01  0.303512E-01  0.294935E-01  0.294935E-01  0.303512E-01  0.317232E-01
  0.329696E-01  0.335925E-01  0.337009E-01  0.337009E-01  0.335925E-01  0.329696E-01
  0.317232E-01  0.313317E-01  0.310563E-01  0.309723E-01  0.310563E-01  0.313317E-01
  0.317232E-01  0.319795E-01  0.319821E-01  0.319285E-01  0.319821E-01  0.319795E-01
  0.317232E-01  0.303512E-01  0.310563E-01  0.315716E-01  0.315716E-01  0.310563E-01
  0.303512E-01  0.297223E-01  0.292293E-01  0.289268E-01  0.289268E-01  0.292293E-01
  0.297223E-01  0.303512E-01  0.294935E-01  0.309723E-01  0.315716E-01  0.309723E-01
  0.294935E-01  0.277986E-01  0.264051E-01  0.255315E-01  0.252361E-01  0.255315E-01
  0.264051E-01  0.277986E-01  0.294935E-01  0.294935E-01  0.310563E-01  0.310563E-01
  0.294935E-01  0.270577E-01  0.246690E-01  0.229622E-01  0.221282E-01  0.221282E-01
  0.229622E-01  0.246690E-01  0.270577E-01  0.294935E-01  0.303512E-01  0.313317E-01
  0.303512E-01  0.277986E-01  0.246690E-01  0.220276E-01  0.204449E-01  0.199457E-01
  0.204449E-01  0.220276E-01  0.246690E-01  0.277986E-01  0.303512E-01  0.317232E-01
  0.317232E-01  0.297223E-01  0.264051E-01  0.229622E-01  0.204449E-01  0.192289E-01
  0.192289E-01  0.204449E-01  0.229622E-01  0.264051E-01  0.297223E-01  0.317232E-01
  0.329696E-01  0.319795E-01  0.292293E-01  0.255315E-01  0.221282E-01  0.199457E-01
  0.192289E-01  0.199457E-01  0.221282E-01  0.255315E-01  0.292293E-01  0.319795E-01
  0.329696E-01  0.335925E-01  0.319821E-01  0.289268E-01  0.252361E-01  0.221282E-01
  0.204449E-01  0.204449E-01  0.221282E-01  0.252361E-01  0.289268E-01  0.319821E-01
  0.335925E-01  0.335925E-01  0.337009E-01  0.319285E-01  0.289268E-01  0.255315E-01
  0.229622E-01  0.220276E-01  0.229622E-01  0.255315E-01  0.289268E-01  0.319285E-01
  0.337009E-01  0.342321E-01  0.337009E-01  0.337009E-01  0.319821E-01  0.292293E-01
  0.264051E-01  0.246690E-01  0.246690E-01  0.264051E-01  0.292293E-01  0.319821E-01
  0.337009E-01  0.343331E-01  0.343331E-01  0.337009E-01  0.335925E-01  0.319795E-01
  0.297223E-01  0.277986E-01  0.270577E-01  0.277986E-01  0.297223E-01  0.319795E-01
  0.335925E-01  0.342321E-01  0.343331E-01  0.342321E-01  0.335925E-01  0.329696E-01
  0.317232E-01  0.303512E-01  0.294935E-01  0.294935E-01  0.303512E-01  0.317232E-01
  0.329696E-01  0.335925E-01  0.337009E-01  0.337009E-01  0.335925E-01  0.329696E-01
  0.316716E-01  0.317232E-01  0.318278E-01  0.318807E-01  0.318278E-01  0.317232E-01
  0.316716E-01  0.317232E-01  0.318278E-01  0.318807E-01  0.318278E-01  0.317232E-01
  0.316716E-01  0.317232E-01  0.327821E-01  0.334275E-01  0.334275E-01  0.327821E-01
  0.317232E-01  0.306000E-01  0.297223E-01  0.292599E-01  0.292599E-01  0.297223E-01
  0.306000E-01  0.317232E-01  0.318278E-01  0.334275E-01  0.340216E-01  0.334275E-01
  0.318278E-01  0.297223E-01  0.277466E-01  0.264051E-01  0.259395E-01  0.264051E-01
  0.277466E-01  0.297223E-01  0.318278E-01  0.318807E-01  0.334275E-01  0.334275E-01
  0.318807E-01  0.292599E-01  0.264051E-01  0.241501E-01  0.229622E-01  0.229622E-01
  0.241501E-01  0.264051E-01  0.292599E-01  0.318807E-01  0.318278E-01  0.327821E-01
  0.318278E-01  0.292599E-01  0.259395E-01  0.229622E-01  0.210683E-01  0.204449E-01
  0.210683E-01  0.229622E-01  0.259395E-01  0.292599E-01  0.318278E-01  0.317232E-01
  0.317232E-01  0.297223E-01  0.264051E-01  0.229622E-01  0.204449E-01  0.192289E-01
  0.192289E-01  0.204449E-01  0.229622E-01  0.264051E-01  0.297223E-01  0.317232E-01
  0.316716E-01  0.306000E-01  0.277466E-01  0.241501E-01  0.210683E-01  0.192289E-01
  0.186566E-01  0.192289E-01  0.210683E-01  0.241501E-01  0.277466E-01  0.306000E-01
  0.316716E-01  0.317232E-01  0.297223E-01  0.264051E-01  0.229622E-01  0.204449E-01
  0.192289E-01  0.192289E-01  0.204449E-01  0.229622E-01  0.264051E-01  0.297223E-01
  0.317232E-01  0.317232E-01  0.318278E-01  0.292599E-01  0.259395E-01  0.229622E-01
  0.210683E-01  0.204449E-01  0.210683E-01  0.229622E-01  0.259395E-01  0.292599E-01
  0.318278E-01  0.327821E-01  0.318278E-01  0.318807E-01  0.292599E-01  0.264051E-01
  0.241501E-01  0.229622E-01  0.229622E-01  0.241501E-01  0.264051E-01  0.292599E-01
  0.318807E-01  0.334275E-01  0.334275E-01  0.318807E-01  0.318278E-01  0.297223E-01
  0.277466E-01  0.264051E-01  0.259395E-01  0.264051E-01  0.277466E-01  0.297223E-01
  0.318278E-01  0.334275E-01  0.340216E-01  0.334275E-01  0.318278E-01  0.317232E-01
  0.306000E-01  0.297223E-01  0.292599E-01  0.292599E-01  0.297223E-01  0.306000E-01
  0.317232E-01  0.327821E-01  0.334275E-01  0.334275E-01  0.327821E-01  0.317232E-01
  0.316716E-01  0.317232E-01  0.318278E-01  0.318807E-01  0.318278E-01  0.317232E-01
  0.316716E-01  0.317232E-01  0.318278E-01  0.318807E-01  0.318278E-01  0.317232E-01
  0.316716E-01  0.329696E-01  0.335925E-01  0.337009E-01  0.337009E-01  0.335925E-01
  0.329696E-01  0.317232E-01  0.303512E-01  0.294935E-01  0.294935E-01  0.303512E-01
  0.317232E-01  0.329696E-01  0.335925E-01  0.342321E-01  0.343331E-01  0.342321E-01
  0.335925E-01  0.319795E-01  0.297223E-01  0.277986E-01  0.270577E-01  0.277986E-01
  0.297223E-01  0.319795E-01  0.335925E-01  0.337009E-01  0.343331E-01  0.343331E-01
  0.337009E-01  0.319821E-01  0.292293E-01  0.264051E-01  0.246690E-01  0.246690E-01
  0.264051E-01  0.292293E-01  0.319821E-01  0.337009E-01  0.337009E-01  0.342321E-01
  0.337009E-01  0.319285E-01  0.289268E-01  0.255315E-01  0.229622E-01  0.220276E-01
  0.229622E-01  0.255315E-01  0.289268E-01  0.319285E-01  0.337009E-01  0.335925E-01
  0.335925E-01  0.319821E-01  0.289268E-01  0.252361E-01  0.221282E-01  0.204449E-01
  0.204449E-01  0.221282E-01  0.252361E-01  0.289268E-01  0.319821E-01  0.335925E-01
  0.329696E-01  0.319795E-01  0.292293E-01  0.255315E-01  0.221282E-01  0.199457E-01
  0.192289E-01  0.199457E-01  0.221282E-01  0.255315E-01  0.292293E-01  0.319795E-01
  0.329696E-01  0.317232E-01  0.297223E-01  0.264051E-01  0.229622E-01  0.204449E-01
  0.192289E-01  0.192289E-01  0.204449E-01  0.229622E-01  0.264051E-01  0.297223E-01
  0.317232E-01  0.317232E-01  0.303512E-01  0.277986E-01  0.246690E-01  0.220276E-01
  0.204449E-01  0.199457E-01  0.204449E-01  0.220276E-01  0.246690E-01  0.277986E-01
  0.303512E-01  0.313317E-01  0.303512E-01  0.294935E-01  0.270577E-01  0.246690E-01
  0.229622E-01  0.221282E-01  0.221282E-01  0.229622E-01  0.246690E-01  0.270577E-01
  0.294935E-01  0.310563E-01  0.310563E-01  0.294935E-01  0.294935E-01  0.277986E-01
  0.264051E-01  0.255315E-01  0.252361E-01  0.255315E-01  0.264051E-01  0.277986E-01
  0.294935E-01  0.309723E-01  0.315716E-01  0.309723E-01  0.294935E-01  0.303512E-01
  0.297223E-01  0.292293E-01  0.289268E-01  0.289268E-01  0.292293E-01  0.297223E-01
  0.303512E-01  0.310563E-01  0.315716E-01  0.315716E-01  0.310563E-01  0.303512E-01
  0.317232E-01  0.319795E-01  0.319821E-01  0.319285E-01  0.319821E-01  0.319795E-01
  0.317232E-01  0.313317E-01  0.310563E-01  0.309723E-01  0.310563E-01  0.313317E-01
  0.317232E-01  0.329696E-01  0.335925E-01  0.337009E-01  0.337009E-01  0.335925E-01
  0.329696E-01  0.317232E-01  0.303512E-01  0.294935E-01  0.294935E-01  0.303512E-01
  0.317232E-01  0.329696E-01  0.333019E-01  0.316093E-01  0.306651E-01  0.316093E-01
  0.333019E-01  0.335925E-01  0.318278E-01  0.294935E-01  0.284663E-01  0.294935E-01
  0.318278E-01  0.335925E-01  0.333019E-01  0.316093E-01  0.298773E-01  0.298773E-01
  0.316093E-01  0.329519E-01  0.319821E-01  0.292599E-01  0.270577E-01  0.270577E-01
  0.292599E-01  0.319821E-01  0.329519E-01  0.316093E-01  0.306651E-01  0.298773E-01
  0.306651E-01  0.319135E-01  0.315088E-01  0.289268E-01  0.259395E-01  0.246690E-01
  0.259395E-01  0.289268E-01  0.315088E-01  0.319135E-01  0.306651E-01  0.316093E-01
  0.316093E-01  0.319135E-01  0.311807E-01  0.286058E-01  0.252361E-01  0.229622E-01
  0.229622E-01  0.252361E-01  0.286058E-01  0.311807E-01  0.319135E-01  0.316093E-01
  0.333019E-01  0.329519E-01  0.315088E-01  0.286058E-01  0.249919E-01  0.221282E-01
  0.210683E-01  0.221282E-01  0.249919E-01  0.286058E-01  0.315088E-01  0.329519E-01
  0.333019E-01  0.335925E-01  0.319821E-01  0.289268E-01  0.252361E-01  0.221282E-01
  0.204449E-01  0.204449E-01  0.221282E-01  0.252361E-01  0.289268E-01  0.319821E-01
  0.335925E-01  0.335925E-01  0.318278E-01  0.292599E-01  0.259395E-01  0.229622E-01
  0.210683E-01  0.204449E-01  0.210683E-01  0.229622E-01  0.259395E-01  0.292599E-01
  0.318278E-01  0.327821E-01  0.318278E-01  0.294935E-01  0.270577E-01  0.246690E-01
  0.229622E-01  0.221282E-01  0.221282E-01  0.229622E-01  0.246690E-01  0.270577E-01
  0.294935E-01  0.310563E-01  0.310563E-01  0.294935E-01  0.284663E-01  0.270577E-01
  0.259395E-01  0.252361E-01  0.249919E-01  0.252361E-01  0.259395E-01  0.270577E-01
  0.284663E-01  0.297507E-01  0.302854E-01  0.297507E-01  0.284663E-01  0.294935E-01
  0.292599E-01  0.289268E-01  0.286058E-01  0.286058E-01  0.289268E-01  0.292599E-01
  0.294935E-01  0.297507E-01  0.299866E-01  0.299866E-01  0.297507E-01  0.294935E-01
  0.318278E-01  0.319821E-01  0.315088E-01  0.311807E-01  0.315088E-01  0.319821E-01
  0.318278E-01  0.310563E-01  0.302854E-01  0.299866E-01  0.302854E-01  0.310563E-01
  0.318278E-01  0.335925E-01  0.329519E-01  0.319135E-01  0.319135E-01  0.329519E-01
  0.335925E-01  0.327821E-01  0.310563E-01  0.297507E-01  0.297507E-01  0.310563E-01
  0.327821E-01  0.335925E-01  0.333019E-01  0.316093E-01  0.306651E-01  0.316093E-01
  0.333019E-01  0.335925E-01  0.318278E-01  0.294935E-01  0.284663E-01  0.294935E-01
  0.318278E-01  0.335925E-01  0.333019E-01  0.261683E-01  0.217339E-01  0.217339E-01
  0.261683E-01  0.316093E-01  0.337009E-01  0.318807E-01  0.294935E-01  0.294935E-01
  0.318807E-01  0.337009E-01  0.316093E-01  0.261683E-01  0.217339E-01  0.192727E-01
  0.217339E-01  0.274430E-01  0.319135E-01  0.319285E-01  0.292599E-01  0.277986E-01
  0.292599E-01  0.319285E-01  0.319135E-01  0.274430E-01  0.217339E-01  0.217339E-01
  0.217339E-01  0.254705E-01  0.299134E-01  0.311807E-01  0.289268E-01  0.264051E-01
  0.264051E-01  0.289268E-01  0.311807E-01  0.299134E-01  0.254705E-01  0.217339E-01
  0.261683E-01  0.274430E-01  0.299134E-01  0.307038E-01  0.286058E-01  0.255315E-01
  0.241501E-01  0.255315E-01  0.286058E-01  0.307038E-01  0.299134E-01  0.274430E-01
  0.261683E-01  0.316093E-01  0.319135E-01  0.311807E-01  0.286058E-01  0.252361E-01
  0.229622E-01  0.229622E-01  0.252361E-01  0.286058E-01  0.311807E-01  0.319135E-01
  0.316093E-01  0.316093E-01  0.337009E-01  0.319285E-01  0.289268E-01  0.255315E-01
  0.229622E-01  0.220276E-01  0.229622E-01  0.255315E-01  0.289268E-01  0.319285E-01
  0.337009E-01  0.342321E-01  0.337009E-01  0.318807E-01  0.292599E-01  0.264051E-01
  0.241501E-01  0.229622E-01  0.229622E-01  0.241501E-01  0.264051E-01  0.292599E-01
  0.318807E-01  0.334275E-01  0.334275E-01  0.318807E-01  0.294935E-01  0.277986E-01
  0.264051E-01  0.255315E-01  0.252361E-01  0.255315E-01  0.264051E-01  0.277986E-01
  0.294935E-01  0.309723E-01  0.315716E-01  0.309723E-01  0.294935E-01  0.294935E-01
  0.292599E-01  0.289268E-01  0.286058E-01  0.286058E-01  0.289268E-01  0.292599E-01
  0.294935E-01  0.297507E-01  0.299866E-01  0.299866E-01  0.297507E-01  0.294935E-01
  0.318807E-01  0.319285E-01  0.311807E-01  0.307038E-01  0.311807E-01  0.319285E-01
  0.318807E-01  0.309723E-01  0.299866E-01  0.295907E-01  0.299866E-01  0.309723E-01
  0.318807E-01  0.337009E-01  0.319135E-01  0.299134E-01  0.299134E-01  0.319135E-01
  0.337009E-01  0.334275E-01  0.315716E-01  0.299866E-01  0.299866E-01  0.315716E-01
  0.334275E-01  0.337009E-01  0.316093E-01  0.274430E-01  0.254705E-01  0.274430E-01
  0.316093E-01  0.342321E-01  0.334275E-01  0.309723E-01  0.297507E-01  0.309723E-01
  0.334275E-01  0.342321E-01  0.316093E-01  0.261683E-01  0.217339E-01  0.217339E-01
  0.261683E-01  0.316093E-01  0.337009E-01  0.318807E-01  0.294935E-01  0.294935E-01
  0.318807E-01  0.337009E-01  0.316093E-01  0.261683E-01  0.129266E-01  0.961836E-02
  0.129266E-01  0.217339E-01  0.306651E-01  0.337009E-01  0.318278E-01  0.303512E-01
  0.318278E-01  0.337009E-01  0.306651E-01  0.217339E-01  0.129266E-01  0.961836E-02
  0.961836E-02  0.157943E-01  0.254705E-01  0.319135E-01  0.319821E-01  0.297223E-01
  0.297223E-01  0.319821E-01  0.319135E-01  0.254705E-01  0.157943E-01  0.961836E-02
  0.129266E-01  0.157943E-01  0.230916E-01  0.299134E-01  0.315088E-01  0.292293E-01
  0.277466E-01  0.292293E-01  0.315088E-01  0.299134E-01  0.230916E-01  0.157943E-01
  0.129266E-01  0.217339E-01  0.254705E-01  0.299134E-01  0.311807E-01  0.289268E-01
  0.264051E-01  0.264051E-01  0.289268E-01  0.311807E-01  0.299134E-01  0.254705E-01
  0.217339E-01  0.217339E-01  0.306651E-01  0.319135E-01  0.315088E-01  0.289268E-01
  0.259395E-01  0.246690E-01  0.259395E-01  0.289268E-01  0.315088E-01  0.319135E-01
  0.306651E-01  0.298773E-01  0.306651E-01  0.337009E-01  0.319821E-01  0.292293E-01
  0.264051E-01  0.246690E-01  0.246690E-01  0.264051E-01  0.292293E-01  0.319821E-01
  0.337009E-01  0.343331E-01  0.343331E-01  0.337009E-01  0.318278E-01  0.297223E-01
  0.277466E-01  0.264051E-01  0.259395E-01  0.264051E-01  0.277466E-01  0.297223E-01
  0.318278E-01  0.334275E-01  0.340216E-01  0.334275E-01  0.318278E-01  0.303512E-01
  0.297223E-01  0.292293E-01  0.289268E-01  0.289268E-01  0.292293E-01  0.297223E-01
  0.303512E-01  0.310563E-01  0.315716E-01  0.315716E-01  0.310563E-01  0.303512E-01
  0.318278E-01  0.319821E-01  0.315088E-01  0.311807E-01  0.315088E-01  0.319821E-01
  0.318278E-01  0.310563E-01  0.302854E-01  0.299866E-01  0.302854E-01  0.310563E-01
  0.318278E-01  0.337009E-01  0.319135E-01  0.299134E-01  0.299134E-01  0.319135E-01
  0.337009E-01  0.334275E-01  0.315716E-01  0.299866E-01  0.299866E-01  0.315716E-01
  0.334275E-01  0.337009E-01  0.306651E-01  0.254705E-01  0.230916E-01  0.254705E-01
  0.306651E-01  0.343331E-01  0.340216E-01  0.315716E-01  0.302854E-01  0.315716E-01
  0.340216E-01  0.343331E-01  0.306651E-01  0.217339E-01  0.157943E-01  0.157943E-01
  0.217339E-01  0.298773E-01  0.343331E-01  0.334275E-01  0.310563E-01  0.310563E-01
  0.334275E-01  0.343331E-01  0.298773E-01  0.217339E-01  0.129266E-01  0.961836E-02
  0.129266E-01  0.217339E-01  0.306651E-01  0.337009E-01  0.318278E-01  0.303512E-01
  0.318278E-01  0.337009E-01  0.306651E-01  0.217339E-01  0.129266E-01  0.318083E-02
  0.318083E-02  0.961836E-02  0.217339E-01  0.316093E-01  0.335925E-01  0.317232E-01
  0.317232E-01  0.335925E-01  0.316093E-01  0.217339E-01  0.961836E-02  0.318083E-02
  0.318083E-02  0.621408E-02  0.157943E-01  0.274430E-01  0.329519E-01  0.319795E-01
  0.306000E-01  0.319795E-01  0.329519E-01  0.274430E-01  0.157943E-01  0.621408E-02
  0.318083E-02  0.961836E-02  0.157943E-01  0.254705E-01  0.319135E-01  0.319821E-01
  0.297223E-01  0.297223E-01  0.319821E-01  0.319135E-01  0.254705E-01  0.157943E-01
  0.961836E-02  0.961836E-02  0.217339E-01  0.274430E-01  0.319135E-01  0.319285E-01
  0.292599E-01  0.277986E-01  0.292599E-01  0.319285E-01  0.319135E-01  0.274430E-01
  0.217339E-01  0.192727E-01  0.217339E-01  0.316093E-01  0.329519E-01  0.319821E-01
  0.292599E-01  0.270577E-01  0.270577E-01  0.292599E-01  0.319821E-01  0.329519E-01
  0.316093E-01  0.298773E-01  0.298773E-01  0.316093E-01  0.335925E-01  0.319795E-01
  0.297223E-01  0.277986E-01  0.270577E-01  0.277986E-01  0.297223E-01  0.319795E-01
  0.335925E-01  0.342321E-01  0.343331E-01  0.342321E-01  0.335925E-01  0.317232E-01
  0.306000E-01  0.297223E-01  0.292599E-01  0.292599E-01  0.297223E-01  0.306000E-01
  0.317232E-01  0.327821E-01  0.334275E-01  0.334275E-01  0.327821E-01  0.317232E-01
  0.317232E-01  0.319795E-01  0.319821E-01  0.319285E-01  0.319821E-01  0.319795E-01
  0.317232E-01  0.313317E-01  0.310563E-01  0.309723E-01  0.310563E-01  0.313317E-01
  0.317232E-01  0.335925E-01  0.329519E-01  0.319135E-01  0.319135E-01  0.329519E-01
  0.335925E-01  0.327821E-01  0.310563E-01  0.297507E-01  0.297507E-01  0.310563E-01
  0.327821E-01  0.335925E-01  0.316093E-01  0.274430E-01  0.254705E-01  0.274430E-01
  0.316093E-01  0.342321E-01  0.334275E-01  0.309723E-01  0.297507E-01  0.309723E-01
  0.334275E-01  0.342321E-01  0.316093E-01  0.217339E-01  0.157943E-01  0.157943E-01
  0.217339E-01  0.298773E-01  0.343331E-01  0.334275E-01  0.310563E-01  0.310563E-01
  0.334275E-01  0.343331E-01  0.298773E-01  0.217339E-01  0.961836E-02  0.621408E-02
  0.961836E-02  0.192727E-01  0.298773E-01  0.342321E-01  0.327821E-01  0.313317E-01
  0.327821E-01  0.342321E-01  0.298773E-01  0.192727E-01  0.961836E-02  0.318083E-02
  0.318083E-02  0.961836E-02  0.217339E-01  0.316093E-01  0.335925E-01  0.317232E-01
  0.317232E-01  0.335925E-01  0.316093E-01  0.217339E-01  0.961836E-02  0.318083E-02
  0.508778E-03  0.318083E-02  0.129266E-01  0.261683E-01  0.333019E-01  0.329696E-01
  0.316716E-01  0.329696E-01  0.333019E-01  0.261683E-01  0.129266E-01  0.318083E-02
  0.508778E-03  0.318083E-02  0.961836E-02  0.217339E-01  0.316093E-01  0.335925E-01
  0.317232E-01  0.317232E-01  0.335925E-01  0.316093E-01  0.217339E-01  0.961836E-02
  0.318083E-02  0.318083E-02  0.129266E-01  0.217339E-01  0.306651E-01  0.337009E-01
  0.318278E-01  0.303512E-01  0.318278E-01  0.337009E-01  0.306651E-01  0.217339E-01
  0.129266E-01  0.961836E-02  0.129266E-01  0.261683E-01  0.316093E-01  0.337009E-01
  0.318807E-01  0.294935E-01  0.294935E-01  0.318807E-01  0.337009E-01  0.316093E-01
  0.261683E-01  0.217339E-01  0.217339E-01  0.261683E-01  0.333019E-01  0.335925E-01