 CRYSTAL
 PRIMVEC
    2.728555509    2.728555509    0.000000000
   -2.728555509    2.728555509    0.000000000
    0.000000000    0.000000000   10.914222035
 PRIMCOORD
           6           1
O         0.000000000    2.728555508    5.014332903
C         0.000000000    2.728555508    3.855824986
Rh        0.000000000    0.000000000    1.773004073
Rh        0.000000000    2.728555508    1.987542972
Rh       -1.364277748    1.364277748    0.000000000
Rh        1.364277748    1.364277748    0.000000000
BEGIN_BLOCK_DATAGRID_3D
3D_PWSCF
BEGIN_DATAGRID_3D_UNKNOWN
          37          37          97
  0.000000  0.000000  0.000000
    2.728556    2.728556    0.000000
   -2.728556    2.728556    0.000000
    0.000000    0.000000   10.914222
  0.358644E-04  0.311088E-04  0.174887E-04 -0.444232E-05 -0.332427E-04 -0.654109E-04
 -0.885026E-04 -0.703720E-04  0.595918E-04  0.470426E-03  0.146885E-02  0.333194E-02
  0.577186E-02  0.745564E-02  0.680101E-02  0.396747E-02  0.118408E-02  0.920589E-04
  0.187058E-04  0.920589E-04  0.118408E-02  0.396747E-02  0.680101E-02  0.745564E-02
  0.577186E-02  0.333194E-02  0.146885E-02  0.470426E-03  0.595918E-04 -0.703720E-04
 -0.885026E-04 -0.654109E-04 -0.332427E-04 -0.444233E-05  0.174887E-04  0.311088E-04
  0.358644E-04  0.311088E-04  0.265430E-04  0.136857E-04 -0.683844E-05 -0.338708E-04
 -0.640272E-04 -0.853374E-04 -0.669720E-04  0.581683E-04  0.449403E-03  0.139927E-02
  0.318638E-02  0.558091E-02  0.736371E-02  0.698447E-02  0.439791E-02  0.154667E-02
  0.113106E-03 -0.160604E-03  0.113106E-03  0.154667E-02  0.439791E-02  0.698447E-02
  0.736371E-02  0.558091E-02  0.318638E-02  0.139927E-02  0.449403E-03  0.581683E-04
 -0.669720E-04 -0.853374E-04 -0.640272E-04 -0.338708E-04 -0.683845E-05  0.136857E-04
  0.265430E-04  0.311088E-04  0.174887E-04  0.136857E-04  0.306958E-05 -0.137893E-04
 -0.360551E-04 -0.608823E-04 -0.777045E-04 -0.589675E-04  0.527887E-04  0.389447E-03
  0.119929E-02  0.274362E-02  0.489969E-02  0.669539E-02  0.666513E-02  0.432051E-02
  0.983161E-03 -0.150067E-02 -0.233957E-02 -0.150067E-02  0.983161E-03  0.432051E-02
  0.666513E-02  0.669539E-02  0.489969E-02  0.274362E-02  0.119929E-02  0.389447E-03
  0.527887E-04 -0.589675E-04 -0.777045E-04 -0.608823E-04 -0.360551E-04 -0.137893E-04
  0.306957E-05  0.136857E-04  0.174887E-04 -0.444231E-05 -0.683844E-05 -0.137893E-04
 -0.251865E-04 -0.406003E-04 -0.581758E-04 -0.693134E-04 -0.509954E-04  0.413832E-04
  0.301978E-03  0.908810E-03  0.205892E-02  0.367976E-02  0.502289E-02  0.475999E-02
  0.206162E-02 -0.228179E-02 -0.618515E-02 -0.772635E-02 -0.618515E-02 -0.228179E-02
  0.206162E-02  0.475999E-02  0.502289E-02  0.367976E-02  0.205892E-02  0.908810E-03
  0.301978E-03  0.413832E-04 -0.509954E-04 -0.693134E-04 -0.581758E-04 -0.406003E-04
 -0.251865E-04 -0.137893E-04 -0.683844E-05 -0.444231E-05 -0.332427E-04 -0.338708E-04
 -0.360551E-04 -0.406003E-04 -0.481686E-04 -0.578673E-04 -0.630885E-04 -0.462505E-04
  0.248324E-04  0.207742E-03  0.603324E-03  0.131399E-02  0.224793E-02  0.281458E-02
  0.190648E-02 -0.134340E-02 -0.641695E-02 -0.111761E-01 -0.131269E-01 -0.111761E-01
 -0.641695E-02 -0.134340E-02  0.190648E-02  0.281458E-02  0.224793E-02  0.131399E-02
  0.603324E-03  0.207742E-03  0.248324E-04 -0.462505E-04 -0.630885E-04 -0.578673E-04
 -0.481686E-04 -0.406003E-04 -0.360551E-04 -0.338708E-04 -0.332427E-04 -0.654109E-04
 -0.640272E-04 -0.608822E-04 -0.581758E-04 -0.578673E-04 -0.598974E-04 -0.594386E-04
 -0.440102E-04  0.866320E-05  0.129212E-03  0.357807E-03  0.716268E-03  0.108671E-02
  0.102151E-02 -0.280733E-03 -0.347323E-02 -0.816056E-02 -0.125363E-01 -0.143394E-01
 -0.125363E-01 -0.816056E-02 -0.347323E-02 -0.280733E-03  0.102151E-02  0.108671E-02
  0.716268E-03  0.357807E-03  0.129212E-03  0.866320E-05 -0.440102E-04 -0.594386E-04
 -0.598974E-04 -0.578673E-04 -0.581758E-04 -0.608822E-04 -0.640272E-04 -0.654109E-04
 -0.885026E-04 -0.853374E-04 -0.777045E-04 -0.693134E-04 -0.630885E-04 -0.594386E-04
 -0.544088E-04 -0.391858E-04  0.964937E-06  0.812321E-04  0.208170E-03  0.361009E-03
  0.428543E-03  0.114397E-03 -0.106344E-02 -0.347478E-02 -0.682538E-02 -0.989957E-02
 -0.111608E-01 -0.989957E-02 -0.682538E-02 -0.347478E-02 -0.106344E-02  0.114397E-03
  0.428543E-03  0.361009E-03  0.208170E-03  0.812321E-04  0.964941E-06 -0.391858E-04
 -0.544088E-04 -0.594386E-04 -0.630885E-04 -0.693134E-04 -0.777045E-04 -0.853374E-04
 -0.885026E-04 -0.703720E-04 -0.669720E-04 -0.589674E-04 -0.509954E-04 -0.462505E-04
 -0.440102E-04 -0.391858E-04 -0.243292E-04  0.982159E-05  0.701352E-04  0.150641E-03
  0.219878E-03  0.195784E-03 -0.879323E-04 -0.868884E-03 -0.230393E-02 -0.420239E-02
 -0.590570E-02 -0.659849E-02 -0.590570E-02 -0.420239E-02 -0.230393E-02 -0.868884E-03
 -0.879323E-04  0.195784E-03  0.219878E-03  0.150641E-03  0.701352E-04  0.982159E-05
 -0.243292E-04 -0.391858E-04 -0.440102E-04 -0.462505E-04 -0.509954E-04 -0.589674E-04
 -0.669720E-04 -0.703720E-04  0.595919E-04  0.581683E-04  0.527887E-04  0.413832E-04
  0.248324E-04  0.866320E-05  0.964940E-06  0.982159E-05  0.412321E-04  0.959670E-04
  0.164271E-03  0.218483E-03  0.205470E-03  0.423260E-04 -0.369193E-03 -0.107608E-02
 -0.197069E-02 -0.275303E-02 -0.306754E-02 -0.275303E-02 -0.197069E-02 -0.107608E-02
 -0.369193E-03  0.423260E-04  0.205470E-03  0.218483E-03  0.164271E-03  0.959670E-04
  0.412321E-04  0.982159E-05  0.964941E-06  0.866320E-05  0.248324E-04  0.413832E-04
  0.527887E-04  0.581683E-04  0.595919E-04  0.470426E-03  0.449403E-03  0.389447E-03
  0.301978E-03  0.207742E-03  0.129212E-03  0.812321E-04  0.701352E-04  0.959670E-04
  0.152287E-03  0.225546E-03  0.292549E-03  0.319236E-03  0.264426E-03  0.904883E-04
 -0.210113E-03 -0.581682E-03 -0.899776E-03 -0.102617E-02 -0.899776E-03 -0.581682E-03
 -0.210113E-03  0.904883E-04  0.264426E-03  0.319236E-03  0.292549E-03  0.225546E-03
  0.152287E-03  0.959670E-04  0.701352E-04  0.812321E-04  0.129212E-03  0.207742E-03
  0.301978E-03  0.389447E-03  0.449403E-03  0.470426E-03  0.146885E-02  0.139927E-02
  0.119929E-02  0.908810E-03  0.603324E-03  0.357807E-03  0.208170E-03  0.150641E-03
  0.164271E-03  0.225546E-03  0.311193E-03  0.397738E-03  0.461574E-03  0.479967E-03
  0.436343E-03  0.331247E-03  0.192156E-03  0.714556E-04  0.234661E-04  0.714556E-04
  0.192156E-03  0.331247E-03  0.436343E-03  0.479967E-03  0.461574E-03  0.397738E-03
  0.311193E-03  0.225546E-03  0.164271E-03  0.150641E-03  0.208170E-03  0.357807E-03
  0.603324E-03  0.908810E-03  0.119929E-02  0.139927E-02  0.146885E-02  0.333194E-02
  0.318638E-02  0.274362E-02  0.205892E-02  0.131399E-02  0.716268E-03  0.361009E-03
  0.219878E-03  0.218483E-03  0.292549E-03  0.397738E-03  0.504548E-03  0.594313E-03
  0.654316E-03  0.676557E-03  0.661418E-03  0.621584E-03  0.580915E-03  0.563872E-03
  0.580915E-03  0.621584E-03  0.661418E-03  0.676557E-03  0.654316E-03  0.594313E-03
  0.504548E-03  0.397738E-03  0.292549E-03  0.218483E-03  0.219878E-03  0.361009E-03
  0.716268E-03  0.131399E-02  0.205892E-02  0.274362E-02  0.318638E-02  0.333194E-02
  0.577186E-02  0.558091E-02  0.489969E-02  0.367976E-02  0.224793E-02  0.108671E-02
  0.428543E-03  0.195784E-03  0.205470E-03  0.319236E-03  0.461574E-03  0.594313E-03
  0.701825E-03  0.780583E-03  0.830099E-03  0.851776E-03  0.852116E-03  0.843270E-03
  0.838340E-03  0.843270E-03  0.852116E-03  0.851776E-03  0.830099E-03  0.780583E-03
  0.701825E-03  0.594313E-03  0.461574E-03  0.319236E-03  0.205470E-03  0.195784E-03
  0.428543E-03  0.108671E-02  0.224793E-02  0.367976E-02  0.489969E-02  0.558091E-02
  0.577186E-02  0.745564E-02  0.736371E-02  0.669539E-02  0.502289E-02  0.281458E-02
  0.102151E-02  0.114397E-03 -0.879323E-04  0.423260E-04  0.264426E-03  0.479967E-03
  0.654316E-03  0.780583E-03  0.866950E-03  0.922530E-03  0.953109E-03  0.964649E-03
  0.965322E-03  0.964119E-03  0.965322E-03  0.964649E-03  0.953109E-03  0.922530E-03
  0.866950E-03  0.780583E-03  0.654316E-03  0.479967E-03  0.264426E-03  0.423260E-04
 -0.879323E-04  0.114397E-03  0.102151E-02  0.281458E-02  0.502289E-02  0.669539E-02
  0.736371E-02  0.745564E-02  0.680101E-02  0.698447E-02  0.666513E-02  0.475999E-02
  0.190648E-02 -0.280733E-03 -0.106344E-02 -0.868884E-03 -0.369193E-03  0.904883E-04
  0.436343E-03  0.676557E-03  0.830099E-03  0.922530E-03  0.976156E-03  0.100389E-02
  0.101387E-02  0.101416E-02  0.101303E-02  0.101416E-02  0.101387E-02  0.100389E-02
  0.976156E-03  0.922530E-03  0.830099E-03  0.676557E-03  0.436343E-03  0.904883E-04
 -0.369193E-03 -0.868884E-03 -0.106344E-02 -0.280733E-03  0.190648E-02  0.475999E-02
  0.666513E-02  0.698447E-02  0.680101E-02  0.396747E-02  0.439791E-02  0.432051E-02
  0.206162E-02 -0.134340E-02 -0.347323E-02 -0.347478E-02 -0.230393E-02 -0.107608E-02
 -0.210113E-03  0.331247E-03  0.661418E-03  0.851776E-03  0.953109E-03  0.100389E-02
  0.102567E-02  0.103017E-02  0.102693E-02  0.102464E-02  0.102693E-02  0.103017E-02
  0.102567E-02  0.100389E-02  0.953109E-03  0.851776E-03  0.661418E-03  0.331247E-03
 -0.210113E-03 -0.107608E-02 -0.230393E-02 -0.347478E-02 -0.347323E-02 -0.134340E-02
  0.206162E-02  0.432051E-02  0.439791E-02  0.396747E-02  0.118408E-02  0.154667E-02
  0.983161E-03 -0.228179E-02 -0.641695E-02 -0.816056E-02 -0.682538E-02 -0.420239E-02
 -0.197069E-02 -0.581682E-03  0.192156E-03  0.621584E-03  0.852116E-03  0.964649E-03
  0.101387E-02  0.103017E-02  0.102940E-02  0.102251E-02  0.101888E-02  0.102251E-02
  0.102940E-02  0.103017E-02  0.101387E-02  0.964649E-03  0.852116E-03  0.621584E-03
  0.192156E-03 -0.581682E-03 -0.197069E-02 -0.420239E-02 -0.682538E-02 -0.816056E-02
 -0.641695E-02 -0.228179E-02  0.983161E-03  0.154667E-02  0.118408E-02  0.920589E-04
  0.113106E-03 -0.150067E-02 -0.618515E-02 -0.111761E-01 -0.125363E-01 -0.989957E-02
 -0.590570E-02 -0.275303E-02 -0.899776E-03  0.714556E-04  0.580915E-03  0.843270E-03
  0.965322E-03  0.101416E-02  0.102693E-02  0.102251E-02  0.101304E-02  0.100847E-02
  0.101304E-02  0.102251E-02  0.102693E-02  0.101416E-02  0.965322E-03  0.843270E-03
  0.580915E-03  0.714556E-04 -0.899776E-03 -0.275303E-02 -0.590570E-02 -0.989957E-02
 -0.125363E-01 -0.111761E-01 -0.618515E-02 -0.150067E-02  0.113106E-03  0.920589E-04
  0.187058E-04 -0.160604E-03 -0.233957E-02 -0.772635E-02 -0.131269E-01 -0.143394E-01
 -0.111608E-01 -0.659849E-02 -0.306754E-02 -0.102617E-02  0.234662E-04  0.563872E-03
  0.838340E-03  0.964119E-03  0.101303E-02  0.102464E-02  0.101888E-02  0.100847E-02
  0.100361E-02  0.100847E-02  0.101888E-02  0.102464E-02  0.101303E-02  0.964119E-03
  0.838340E-03  0.563872E-03  0.234662E-04 -0.102617E-02 -0.306754E-02 -0.659849E-02
 -0.111608E-01 -0.143394E-01 -0.131269E-01 -0.772635E-02 -0.233957E-02 -0.160604E-03
  0.187058E-04  0.920589E-04  0.113106E-03 -0.150067E-02 -0.618515E-02 -0.111761E-01
 -0.125363E-01 -0.989957E-02 -0.590570E-02 -0.275303E-02 -0.899776E-03  0.714556E-04
  0.580915E-03  0.843270E-03  0.965322E-03  0.101416E-02  0.102693E-02  0.102251E-02
  0.101304E-02  0.100847E-02  0.101304E-02  0.102251E-02  0.102693E-02  0.101416E-02
  0.965322E-03  0.843270E-03  0.580915E-03  0.714556E-04 -0.899776E-03 -0.275303E-02
 -0.590570E-02 -0.989957E-02 -0.125363E-01 -0.111761E-01 -0.618515E-02 -0.150067E-02
  0.113106E-03  0.920589E-04  0.118408E-02  0.154667E-02  0.983161E-03 -0.228179E-02
 -0.641695E-02 -0.816056E-02 -0.682538E-02 -0.420239E-02 -0.197069E-02 -0.581682E-03
  0.192156E-03  0.621584E-03  0.852116E-03  0.964649E-03  0.101387E-02  0.103017E-02
  0.102940E-02  0.102251E-02  0.101888E-02  0.102251E-02  0.102940E-02  0.103017E-02
  0.101387E-02  0.964649E-03  0.852116E-03  0.621584E-03  0.192156E-03 -0.581682E-03
 -0.197069E-02 -0.420239E-02 -0.682538E-02 -0.816056E-02 -0.641695E-02 -0.228179E-02
  0.983161E-03  0.154667E-02  0.118408E-02  0.396747E-02  0.439791E-02  0.432051E-02
  0.206162E-02 -0.134340E-02 -0.347323E-02 -0.347478E-02 -0.230393E-02 -0.107608E-02
 -0.210113E-03  0.331247E-03  0.661418E-03  0.851776E-03  0.953109E-03  0.100389E-02
  0.102567E-02  0.103017E-02  0.102693E-02  0.102464E-02  0.102693E-02  0.103017E-02
  0.102567E-02  0.100389E-02  0.953109E-03  0.851776E-03  0.661418E-03  0.331247E-03
 -0.210113E-03 -0.107608E-02 -0.230393E-02 -0.347478E-02 -0.347323E-02 -0.134340E-02
  0.206162E-02  0.432051E-02  0.439791E-02  0.396747E-02  0.680101E-02  0.698447E-02
  0.666513E-02  0.475999E-02  0.190648E-02 -0.280733E-03 -0.106344E-02 -0.868884E-03
 -0.369193E-03  0.904883E-04  0.436343E-03  0.676557E-03  0.830099E-03  0.922530E-03
  0.976156E-03  0.100389E-02  0.101387E-02  0.101416E-02  0.101303E-02  0.101416E-02
  0.101387E-02  0.100389E-02  0.976156E-03  0.922530E-03  0.830099E-03  0.676557E-03
  0.436343E-03  0.904883E-04 -0.369193E-03 -0.868884E-03 -0.106344E-02 -0.280733E-03
  0.190648E-02  0.475999E-02  0.666513E-02  0.698447E-02  0.680101E-02  0.745564E-02
  0.736371E-02  0.669539E-02  0.502289E-02  0.281458E-02  0.102151E-02  0.114397E-03
 -0.879323E-04  0.423260E-04  0.264426E-03  0.479967E-03  0.654316E-03  0.780583E-03
  0.866950E-03  0.922530E-03  0.953109E-03  0.964649E-03  0.965322E-03  0.964119E-03
  0.965322E-03  0.964649E-03  0.953109E-03  0.922530E-03  0.866950E-03  0.780583E-03
  0.654316E-03  0.479967E-03  0.264426E-03  0.423260E-04 -0.879323E-04  0.114397E-03
  0.102151E-02  0.281458E-02  0.502289E-02  0.669539E-02  0.736371E-02  0.745564E-02
  0.577186E-02  0.558091E-02  0.489969E-02  0.367976E-02  0.224793E-02  0.108671E-02
  0.428543E-03  0.195784E-03  0.205470E-03  0.319236E-03  0.461574E-03  0.594313E-03
  0.701825E-03  0.780583E-03  0.830099E-03  0.851776E-03  0.852116E-03  0.843270E-03
  0.838340E-03  0.843270E-03  0.852116E-03  0.851776E-03  0.830099E-03  0.780583E-03
  0.701825E-03  0.594313E-03  0.461574E-03  0.319236E-03  0.205470E-03  0.195784E-03
  0.428543E-03  0.108671E-02  0.224793E-02  0.367976E-02  0.489969E-02  0.558091E-02
  0.577186E-02  0.333194E-02  0.318638E-02  0.274362E-02  0.205892E-02  0.131399E-02
  0.716268E-03  0.361009E-03  0.219878E-03  0.218483E-03  0.292549E-03  0.397738E-03
  0.504548E-03  0.594313E-03  0.654316E-03  0.676557E-03  0.661418E-03  0.621584E-03
  0.580915E-03  0.563872E-03  0.580915E-03  0.621584E-03  0.661418E-03  0.676557E-03
  0.654316E-03  0.594313E-03  0.504548E-03  0.397738E-03  0.292549E-03  0.218483E-03
  0.219878E-03  0.361009E-03  0.716268E-03  0.131399E-02  0.205892E-02  0.274362E-02
  0.318638E-02  0.333194E-02  0.146885E-02  0.139927E-02  0.119929E-02  0.908810E-03
  0.603324E-03  0.357807E-03  0.208170E-03  0.150641E-03  0.164271E-03  0.225546E-03
  0.311193E-03  0.397738E-03  0.461574E-03  0.479967E-03  0.436343E-03  0.331247E-03
  0.192156E-03  0.714556E-04  0.234661E-04  0.714556E-04  0.192156E-03  0.331247E-03
  0.436343E-03  0.479967E-03  0.461574E-03  0.397738E-03  0.311193E-03  0.225546E-03
  0.164271E-03  0.150641E-03  0.208170E-03  0.357807E-03  0.603324E-03  0.908810E-03
  0.119929E-02  0.139927E-02  0.146885E-02  0.470426E-03  0.449403E-03  0.389447E-03
  0.301978E-03  0.207742E-03  0.129212E-03  0.812321E-04  0.701352E-04  0.959670E-04
  0.152287E-03  0.225546E-03  0.292549E-03  0.319236E-03  0.264426E-03  0.904883E-04
 -0.210113E-03 -0.581682E-03 -0.899776E-03 -0.102617E-02 -0.899776E-03 -0.581682E-03
 -0.210113E-03  0.904883E-04  0.264426E-03  0.319236E-03  0.292549E-03  0.225546E-03
  0.152287E-03  0.959670E-04  0.701352E-04  0.812321E-04  0.129212E-03  0.207742E-03
  0.301978E-03  0.389447E-03  0.449403E-03  0.470426E-03  0.595918E-04  0.581683E-04
  0.527887E-04  0.413832E-04  0.248324E-04  0.866319E-05  0.964932E-06  0.982158E-05
  0.412321E-04  0.959670E-04  0.164271E-03  0.218483E-03  0.205470E-03  0.423260E-04
 -0.369193E-03 -0.107608E-02 -0.197069E-02 -0.275303E-02 -0.306754E-02 -0.275303E-02
 -0.197069E-02 -0.107608E-02 -0.369193E-03  0.423260E-04  0.205470E-03  0.218483E-03
  0.164271E-03  0.959670E-04  0.412321E-04  0.982158E-05  0.964932E-06  0.866319E-05
  0.248324E-04  0.413832E-04  0.527887E-04  0.581683E-04  0.595918E-04 -0.703720E-04
 -0.669720E-04 -0.589675E-04 -0.509954E-04 -0.462505E-04 -0.440102E-04 -0.391858E-04
 -0.243292E-04  0.982158E-05  0.701352E-04  0.150641E-03  0.219878E-03  0.195784E-03
 -0.879323E-04 -0.868884E-03 -0.230393E-02 -0.420239E-02 -0.590570E-02 -0.659849E-02
 -0.590570E-02 -0.420239E-02 -0.230393E-02 -0.868884E-03 -0.879323E-04  0.195784E-03
  0.219878E-03  0.150641E-03  0.701352E-04  0.982158E-05 -0.243292E-04 -0.391858E-04
 -0.440102E-04 -0.462505E-04 -0.509954E-04 -0.589675E-04 -0.669720E-04 -0.703720E-04
 -0.885026E-04 -0.853375E-04 -0.777045E-04 -0.693134E-04 -0.630885E-04 -0.594386E-04
 -0.544089E-04 -0.391858E-04  0.964932E-06  0.812321E-04  0.208170E-03  0.361009E-03
  0.428543E-03  0.114397E-03 -0.106344E-02 -0.347478E-02 -0.682538E-02 -0.989957E-02
 -0.111608E-01 -0.989957E-02 -0.682538E-02 -0.347478E-02 -0.106344E-02  0.114397E-03
  0.428543E-03  0.361009E-03  0.208170E-03  0.812321E-04  0.964930E-06 -0.391858E-04
 -0.544089E-04 -0.594386E-04 -0.630885E-04 -0.693134E-04 -0.777045E-04 -0.853375E-04
 -0.885026E-04 -0.654109E-04 -0.640272E-04 -0.608823E-04 -0.581758E-04 -0.578673E-04
 -0.598974E-04 -0.594386E-04 -0.440102E-04  0.866319E-05  0.129212E-03  0.357807E-03
  0.716268E-03  0.108671E-02  0.102151E-02 -0.280733E-03 -0.347323E-02 -0.816056E-02
 -0.125363E-01 -0.143394E-01 -0.125363E-01 -0.816056E-02 -0.347323E-02 -0.280733E-03
  0.102151E-02  0.108671E-02  0.716268E-03  0.357807E-03  0.129212E-03  0.866319E-05
 -0.440102E-04 -0.594386E-04 -0.598974E-04 -0.578673E-04 -0.581758E-04 -0.608823E-04
 -0.640272E-04 -0.654109E-04 -0.332427E-04 -0.338708E-04 -0.360551E-04 -0.406003E-04
 -0.481687E-04 -0.578673E-04 -0.630885E-04 -0.462505E-04  0.248324E-04  0.207742E-03
  0.603324E-03  0.131399E-02  0.224793E-02  0.281458E-02  0.190648E-02 -0.134340E-02
 -0.641695E-02 -0.111761E-01 -0.131269E-01 -0.111761E-01 -0.641695E-02 -0.134340E-02
  0.190648E-02  0.281458E-02  0.224793E-02  0.131399E-02  0.603324E-03  0.207742E-03
  0.248324E-04 -0.462505E-04 -0.630885E-04 -0.578673E-04 -0.481687E-04 -0.406004E-04
 -0.360551E-04 -0.338709E-04 -0.332427E-04 -0.444233E-05 -0.683846E-05 -0.137893E-04
 -0.251865E-04 -0.406003E-04 -0.581758E-04 -0.693134E-04 -0.509954E-04  0.413832E-04
  0.301978E-03  0.908810E-03  0.205892E-02  0.367976E-02  0.502289E-02  0.475999E-02
  0.206162E-02 -0.228179E-02 -0.618515E-02 -0.772635E-02 -0.618515E-02 -0.228179E-02
  0.206162E-02  0.475999E-02  0.502289E-02  0.367976E-02  0.205892E-02  0.908810E-03
  0.301978E-03  0.413832E-04 -0.509954E-04 -0.693134E-04 -0.581758E-04 -0.406004E-04
 -0.251865E-04 -0.137893E-04 -0.683846E-05 -0.444233E-05  0.174887E-04  0.136857E-04
  0.306957E-05 -0.137893E-04 -0.360551E-04 -0.608823E-04 -0.777045E-04 -0.589675E-04
  0.527887E-04  0.389447E-03  0.119929E-02  0.274362E-02  0.489969E-02  0.669539E-02
  0.666513E-02  0.432051E-02  0.983161E-03 -0.150067E-02 -0.233957E-02 -0.150067E-02
  0.983161E-03  0.432051E-02  0.666513E-02  0.669539E-02  0.489969E-02  0.274362E-02
  0.119929E-02  0.389447E-03  0.527887E-04 -0.589675E-04 -0.777045E-04 -0.608823E-04
 -0.360551E-04 -0.137893E-04  0.306956E-05  0.136857E-04  0.174887E-04  0.311088E-04
  0.265430E-04  0.136857E-04 -0.683845E-05 -0.338708E-04 -0.640272E-04 -0.853374E-04
 -0.669720E-04  0.581683E-04  0.449403E-03  0.139927E-02  0.318638E-02  0.558091E-02
  0.736371E-02  0.698447E-02  0.439791E-02  0.154667E-02  0.113106E-03 -0.160604E-03
  0.113106E-03  0.154667E-02  0.439791E-02  0.698447E-02  0.736371E-02  0.558091E-02
  0.318638E-02  0.139927E-02  0.449403E-03  0.581683E-04 -0.669720E-04 -0.853375E-04
 -0.640272E-04 -0.338708E-04 -0.683846E-05  0.136857E-04  0.265430E-04  0.311088E-04
  0.358644E-04  0.311088E-04  0.174887E-04 -0.444232E-05 -0.332427E-04 -0.654109E-04
 -0.885026E-04 -0.703720E-04  0.595918E-04  0.470426E-03  0.146885E-02  0.333194E-02
  0.577186E-02  0.745564E-02  0.680101E-02  0.396747E-02  0.118408E-02  0.920589E-04
  0.187058E-04  0.920589E-04  0.118408E-02  0.396747E-02  0.680101E-02  0.745564E-02
  0.577186E-02  0.333194E-02  0.146885E-02  0.470426E-03  0.595918E-04 -0.703720E-04
 -0.885026E-04 -0.654109E-04 -0.332427E-04 -0.444233E-05  0.174887E-04  0.311088E-04
  0.358644E-04  0.329813E-04  0.277334E-04  0.127980E-04 -0.104697E-04 -0.411302E-04
 -0.780139E-04 -0.111908E-03 -0.117166E-03 -0.366529E-04  0.262498E-03  0.995491E-03
  0.226769E-02  0.362208E-02  0.384285E-02  0.201802E-02 -0.742860E-03 -0.190380E-02
 -0.830765E-03  0.100219E-03 -0.830765E-03 -0.190380E-02 -0.742860E-03  0.201802E-02
  0.384285E-02  0.362208E-02  0.226769E-02  0.995491E-03  0.262498E-03 -0.366529E-04
 -0.117166E-03 -0.111908E-03 -0.780139E-04 -0.411302E-04 -0.104697E-04  0.127980E-04
  0.277334E-04  0.329813E-04  0.277334E-04  0.227746E-04  0.888407E-05 -0.126844E-04
 -0.412280E-04 -0.753988E-04 -0.106231E-03 -0.109011E-03 -0.291887E-04  0.259779E-03
  0.968101E-03  0.222046E-02  0.363974E-02  0.413066E-02  0.278386E-02  0.446354E-03
 -0.676675E-03  0.925077E-04  0.828644E-03  0.925077E-04 -0.676675E-03  0.446354E-03
  0.278386E-02  0.413066E-02  0.363974E-02  0.222046E-02  0.968101E-03  0.259779E-03
 -0.291887E-04 -0.109011E-03 -0.106231E-03 -0.753988E-04 -0.412280E-04 -0.126844E-04
  0.888407E-05  0.227746E-04  0.277334E-04  0.127980E-04  0.888408E-05 -0.195837E-05
 -0.189404E-04 -0.415704E-04 -0.683671E-04 -0.912598E-04 -0.876891E-04 -0.100937E-04
  0.249081E-03  0.878581E-03  0.203062E-02  0.348969E-02  0.442084E-02  0.391690E-02
  0.222671E-02  0.824250E-03  0.580160E-03  0.740712E-03  0.580160E-03  0.824250E-03
  0.222671E-02  0.391690E-02  0.442084E-02  0.348969E-02  0.203062E-02  0.878581E-03
  0.249081E-03 -0.100937E-04 -0.876891E-04 -0.912598E-04 -0.683671E-04 -0.415704E-04
 -0.189404E-04 -0.195837E-05  0.888408E-05  0.127980E-04 -0.104697E-04 -0.126844E-04
 -0.189404E-04 -0.291319E-04 -0.429364E-04 -0.591925E-04 -0.713593E-04 -0.600013E-04
  0.131574E-04  0.227836E-03  0.728519E-03  0.165495E-02  0.290279E-02  0.386518E-02
  0.365229E-02  0.196609E-02 -0.372371E-03 -0.215641E-02 -0.277858E-02 -0.215641E-02
 -0.372371E-03  0.196609E-02  0.365229E-02  0.386518E-02  0.290279E-02  0.165495E-02
  0.728519E-03  0.227836E-03  0.131574E-04 -0.600013E-04 -0.713593E-04 -0.591925E-04
 -0.429364E-04 -0.291319E-04 -0.189404E-04 -0.126844E-04 -0.104697E-04 -0.411302E-04
 -0.412280E-04 -0.415704E-04 -0.429364E-04 -0.460306E-04 -0.502992E-04 -0.506565E-04
 -0.317424E-04  0.354796E-04  0.202216E-03  0.556040E-03  0.118178E-02  0.199883E-02
  0.254271E-02  0.201045E-02 -0.135295E-03 -0.342809E-02 -0.642885E-02 -0.763506E-02
 -0.642885E-02 -0.342809E-02 -0.135295E-03  0.201045E-02  0.254271E-02  0.199883E-02
  0.118178E-02  0.556040E-03  0.202216E-03  0.354796E-04 -0.317424E-04 -0.506565E-04
 -0.502992E-04 -0.460306E-04 -0.429364E-04 -0.415704E-04 -0.412280E-04 -0.411302E-04
 -0.780139E-04 -0.753988E-04 -0.683671E-04 -0.591925E-04 -0.502992E-04 -0.421700E-04
 -0.308211E-04 -0.466475E-05  0.576017E-04  0.185120E-03  0.416156E-03  0.775116E-03
  0.117130E-02  0.125046E-02  0.393879E-03 -0.187899E-02 -0.525043E-02 -0.838979E-02
 -0.967905E-02 -0.838979E-02 -0.525043E-02 -0.187899E-02  0.393879E-03  0.125046E-02
  0.117130E-02  0.775116E-03  0.416156E-03  0.185120E-03  0.576017E-04 -0.466474E-05
 -0.308211E-04 -0.421700E-04 -0.502991E-04 -0.591925E-04 -0.683671E-04 -0.753988E-04
 -0.780139E-04 -0.111908E-03 -0.106231E-03 -0.912598E-04 -0.713593E-04 -0.506565E-04
 -0.308211E-04 -0.858973E-05  0.249583E-04  0.850397E-04  0.187776E-03  0.342203E-03
  0.535088E-03  0.678717E-03  0.533114E-03 -0.290889E-03 -0.208907E-02 -0.463237E-02
 -0.697782E-02 -0.794122E-02 -0.697782E-02 -0.463237E-02 -0.208907E-02 -0.290889E-03
  0.533114E-03  0.678717E-03  0.535088E-03  0.342203E-03  0.187776E-03  0.850397E-04
  0.249583E-04 -0.858972E-05 -0.308211E-04 -0.506565E-04 -0.713593E-04 -0.912598E-04
 -0.106231E-03 -0.111908E-03 -0.117166E-03 -0.109011E-03 -0.876891E-04 -0.600013E-04
 -0.317424E-04 -0.466475E-05  0.249583E-04  0.650140E-04  0.126195E-03  0.217557E-03
  0.336522E-03  0.457542E-03  0.511995E-03  0.360766E-03 -0.194415E-03 -0.128589E-02
 -0.276406E-02 -0.410244E-02 -0.464861E-02 -0.410244E-02 -0.276406E-02 -0.128589E-02
 -0.194415E-03  0.360766E-03  0.511995E-03  0.457542E-03  0.336522E-03  0.217557E-03
  0.126195E-03  0.650140E-04  0.249583E-04 -0.466474E-05 -0.317424E-04 -0.600013E-04
 -0.876891E-04 -0.109011E-03 -0.117166E-03 -0.366529E-04 -0.291887E-04 -0.100937E-04
  0.131574E-04  0.354796E-04  0.576017E-04  0.850397E-04  0.126195E-03  0.189005E-03
  0.277389E-03  0.385173E-03  0.488602E-03  0.540497E-03  0.467702E-03  0.185292E-03
 -0.348617E-03 -0.104786E-02 -0.166787E-02 -0.191846E-02 -0.166787E-02 -0.104786E-02
 -0.348617E-03  0.185292E-03  0.467701E-03  0.540496E-03  0.488602E-03  0.385173E-03
  0.277389E-03  0.189005E-03  0.126195E-03  0.850397E-04  0.576017E-04  0.354796E-04
  0.131574E-04 -0.100936E-04 -0.291887E-04 -0.366529E-04  0.262498E-03  0.259779E-03
  0.249081E-03  0.227836E-03  0.202216E-03  0.185120E-03  0.187776E-03  0.217557E-03
  0.277389E-03  0.365114E-03  0.471525E-03  0.577080E-03  0.650913E-03  0.654138E-03
  0.551985E-03  0.336165E-03  0.522276E-04 -0.196822E-03 -0.296786E-03 -0.196822E-03
  0.522276E-04  0.336165E-03  0.551985E-03  0.654138E-03  0.650913E-03  0.577080E-03
  0.471525E-03  0.365114E-03  0.277389E-03  0.217557E-03  0.187776E-03  0.185120E-03
  0.202216E-03  0.227836E-03  0.249081E-03  0.259779E-03  0.262498E-03  0.995491E-03
  0.968101E-03  0.878581E-03  0.728519E-03  0.556040E-03  0.416156E-03  0.342203E-03
  0.336522E-03  0.385173E-03  0.471525E-03  0.578597E-03  0.687848E-03  0.779019E-03
  0.830210E-03  0.824676E-03  0.760911E-03  0.661611E-03  0.570779E-03  0.533846E-03
  0.570779E-03  0.661611E-03  0.760911E-03  0.824676E-03  0.830210E-03  0.779019E-03
  0.687848E-03  0.578597E-03  0.471525E-03  0.385173E-03  0.336522E-03  0.342203E-03
  0.416156E-03  0.556040E-03  0.728519E-03  0.878581E-03  0.968101E-03  0.995491E-03
  0.226769E-02  0.222046E-02  0.203062E-02  0.165495E-02  0.118178E-02  0.775116E-03
  0.535088E-03  0.457542E-03  0.488602E-03  0.577080E-03  0.687848E-03  0.798403E-03
  0.894696E-03  0.965418E-03  0.100211E-02  0.100317E-02  0.978866E-03  0.949849E-03
  0.937079E-03  0.949849E-03  0.978866E-03  0.100317E-02  0.100211E-02  0.965418E-03
  0.894696E-03  0.798403E-03  0.687848E-03  0.577080E-03  0.488602E-03  0.457542E-03
  0.535088E-03  0.775116E-03  0.118178E-02  0.165495E-02  0.203062E-02  0.222046E-02
  0.226769E-02  0.362208E-02  0.363974E-02  0.348969E-02  0.290279E-02  0.199883E-02
  0.117130E-02  0.678717E-03  0.511995E-03  0.540497E-03  0.650913E-03  0.779019E-03
  0.894696E-03  0.988321E-03  0.105823E-02  0.110332E-02  0.112344E-02  0.112378E-02
  0.111568E-02  0.111115E-02  0.111568E-02  0.112378E-02  0.112344E-02  0.110332E-02
  0.105823E-02  0.988321E-03  0.894696E-03  0.779019E-03  0.650913E-03  0.540496E-03
  0.511995E-03  0.678717E-03  0.117130E-02  0.199883E-02  0.290279E-02  0.348969E-02
  0.363974E-02  0.362208E-02  0.384285E-02  0.413066E-02  0.442084E-02  0.386518E-02
  0.254271E-02  0.125046E-02  0.533114E-03  0.360766E-03  0.467702E-03  0.654138E-03
  0.830210E-03  0.965418E-03  0.105823E-02  0.111868E-02  0.115479E-02  0.117068E-02
  0.117138E-02  0.116536E-02  0.116190E-02  0.116536E-02  0.117138E-02  0.117068E-02
  0.115479E-02  0.111868E-02  0.105823E-02  0.965418E-03  0.830210E-03  0.654138E-03
  0.467702E-03  0.360766E-03  0.533114E-03  0.125046E-02  0.254271E-02  0.386518E-02
  0.442084E-02  0.413066E-02  0.384285E-02  0.201802E-02  0.278386E-02  0.391690E-02
  0.365229E-02  0.201045E-02  0.393879E-03 -0.290889E-03 -0.194415E-03  0.185292E-03
  0.551985E-03  0.824676E-03  0.100211E-02  0.110332E-02  0.115479E-02  0.117707E-02
  0.118045E-02  0.117193E-02  0.116032E-02  0.115502E-02  0.116032E-02  0.117193E-02
  0.118045E-02  0.117707E-02  0.115479E-02  0.110332E-02  0.100211E-02  0.824676E-03
  0.551985E-03  0.185292E-03 -0.194415E-03 -0.290889E-03  0.393879E-03  0.201045E-02
  0.365229E-02  0.391690E-02  0.278386E-02  0.201802E-02 -0.742860E-03  0.446354E-03
  0.222671E-02  0.196609E-02 -0.135295E-03 -0.187899E-02 -0.208907E-02 -0.128589E-02
 -0.348617E-03  0.336166E-03  0.760911E-03  0.100317E-02  0.112344E-02  0.117068E-02
  0.118045E-02  0.117050E-02  0.115103E-02  0.113240E-02  0.112470E-02  0.113240E-02
  0.115103E-02  0.117050E-02  0.118045E-02  0.117068E-02  0.112344E-02  0.100317E-02
  0.760911E-03  0.336166E-03 -0.348617E-03 -0.128589E-02 -0.208907E-02 -0.187899E-02
 -0.135295E-03  0.196609E-02  0.222671E-02  0.446354E-03 -0.742860E-03 -0.190380E-02
 -0.676675E-03  0.824250E-03 -0.372371E-03 -0.342809E-02 -0.525043E-02 -0.463237E-02
 -0.276406E-02 -0.104786E-02  0.522276E-04  0.661611E-03  0.978866E-03  0.112378E-02
  0.117138E-02  0.117193E-02  0.115103E-02  0.112238E-02  0.109766E-02  0.108780E-02
  0.109766E-02  0.112238E-02  0.115103E-02  0.117193E-02  0.117138E-02  0.112378E-02
  0.978866E-03  0.661611E-03  0.522276E-04 -0.104786E-02 -0.276406E-02 -0.463237E-02
 -0.525043E-02 -0.342809E-02 -0.372371E-03  0.824250E-03 -0.676675E-03 -0.190380E-02
 -0.830765E-03  0.925077E-04  0.580160E-03 -0.215641E-02 -0.642885E-02 -0.838979E-02
 -0.697782E-02 -0.410244E-02 -0.166787E-02 -0.196822E-03  0.570779E-03  0.949849E-03
  0.111568E-02  0.116536E-02  0.116032E-02  0.113240E-02  0.109766E-02  0.106882E-02
  0.105758E-02  0.106882E-02  0.109766E-02  0.113240E-02  0.116032E-02  0.116536E-02
  0.111568E-02  0.949849E-03  0.570779E-03 -0.196822E-03 -0.166787E-02 -0.410244E-02
 -0.697782E-02 -0.838979E-02 -0.642885E-02 -0.215641E-02  0.580160E-03  0.925077E-04
 -0.830765E-03  0.100219E-03  0.828644E-03  0.740712E-03 -0.277858E-02 -0.763506E-02
 -0.967905E-02 -0.794122E-02 -0.464861E-02 -0.191846E-02 -0.296786E-03  0.533846E-03
  0.937079E-03  0.111115E-02  0.116190E-02  0.115502E-02  0.112470E-02  0.108780E-02
  0.105758E-02  0.104595E-02  0.105758E-02  0.108780E-02  0.112470E-02  0.115502E-02
  0.116190E-02  0.111115E-02  0.937079E-03  0.533846E-03 -0.296786E-03 -0.191846E-02