 CRYSTAL
 PRIMVEC
    2.728555510    2.728555510    0.000000000
   -2.728555510    2.728555510    0.000000000
    0.000000000    0.000000000   10.914222040
 PRIMCOORD
           6           1
O         0.000000000    2.728555510    5.014332906
C         0.000000000    2.728555510    3.855824988
Rh        0.000000000    0.000000000    1.773004074
Rh        0.000000000    2.728555510    1.987542974
Rh       -1.364277750    1.364277750    0.000000000
Rh        1.364277750    1.364277750    0.000000000
BEGIN_BLOCK_DATAGRID_3D
3D_PWSCF
BEGIN_DATAGRID_3D_UNKNOWN
          37          37          97
  0.000000  0.000000  0.000000
    2.728556    2.728556    0.000000
   -2.728556    2.728556    0.000000
    0.000000    0.000000   10.914222
  0.119308E-06  0.238807E-06  0.583263E-06  0.822395E-06  0.151395E-05  0.203824E-05
  0.218863E-05  0.260484E-05  0.282821E-05  0.395036E-05  0.727500E-05  0.139638E-04
  0.225473E-04  0.278687E-04  0.246844E-04  0.141307E-04  0.437396E-05  0.769097E-06
  0.664913E-06  0.769097E-06  0.437396E-05  0.141307E-04  0.246844E-04  0.278687E-04
  0.225473E-04  0.139638E-04  0.727500E-05  0.395036E-05  0.282821E-05  0.260484E-05
  0.218863E-05  0.203824E-05  0.151395E-05  0.822395E-06  0.583263E-06  0.238807E-06
  0.119308E-06  0.238807E-06  0.238449E-06  0.571556E-06  0.958022E-06  0.160207E-05
  0.216091E-05  0.252532E-05  0.295518E-05  0.309126E-05  0.425924E-05  0.764301E-05
  0.143381E-04  0.231947E-04  0.295349E-04  0.279632E-04  0.185078E-04  0.821502E-05
  0.286439E-05  0.178296E-05  0.286439E-05  0.821502E-05  0.185078E-04  0.279632E-04
  0.295349E-04  0.231947E-04  0.143381E-04  0.764301E-05  0.425924E-05  0.309126E-05
  0.295518E-05  0.252532E-05  0.216091E-05  0.160207E-05  0.958022E-06  0.571556E-06
  0.238449E-06  0.238807E-06  0.583263E-06  0.571556E-06  0.103563E-05  0.156433E-05
  0.211703E-05  0.270533E-05  0.323631E-05  0.372278E-05  0.402430E-05  0.538238E-05
  0.869782E-05  0.152731E-04  0.247794E-04  0.336245E-04  0.364331E-04  0.311348E-04
  0.218623E-04  0.144686E-04  0.119396E-04  0.144686E-04  0.218623E-04  0.311348E-04
  0.364331E-04  0.336245E-04  0.247794E-04  0.152731E-04  0.869782E-05  0.538238E-05
  0.402430E-05  0.372278E-05  0.323631E-05  0.270533E-05  0.211703E-05  0.156433E-05
  0.103563E-05  0.571556E-06  0.583263E-06  0.822395E-06  0.958022E-06  0.156433E-05
  0.209449E-05  0.274517E-05  0.352990E-05  0.420651E-05  0.493513E-05  0.564081E-05
  0.712535E-05  0.102461E-04  0.165448E-04  0.263261E-04  0.375837E-04  0.460049E-04
  0.481075E-04  0.445018E-04  0.393552E-04  0.371743E-04  0.393552E-04  0.445018E-04
  0.481075E-04  0.460049E-04  0.375837E-04  0.263261E-04  0.165448E-04  0.102461E-04
  0.712535E-05  0.564081E-05  0.493513E-05  0.420651E-05  0.352990E-05  0.274517E-05
  0.209449E-05  0.156433E-05  0.958022E-06  0.822395E-06  0.151395E-05  0.160207E-05
  0.211703E-05  0.274517E-05  0.355858E-05  0.450609E-05  0.548443E-05  0.654866E-05
  0.762539E-05  0.926790E-05  0.122709E-04  0.180434E-04  0.270791E-04  0.390984E-04
  0.515666E-04  0.609327E-04  0.653879E-04  0.661595E-04  0.661139E-04  0.661595E-04
  0.653879E-04  0.609327E-04  0.515666E-04  0.390984E-04  0.270791E-04  0.180434E-04
  0.122709E-04  0.926790E-05  0.762539E-05  0.654866E-05  0.548443E-05  0.450609E-05
  0.355858E-05  0.274517E-05  0.211703E-05  0.160207E-05  0.151395E-05  0.203824E-05
  0.216091E-05  0.270533E-05  0.352990E-05  0.450609E-05  0.554697E-05  0.681111E-05
  0.819027E-05  0.982716E-05  0.119429E-04  0.148178E-04  0.198121E-04  0.274824E-04
  0.383311E-04  0.511416E-04  0.635210E-04  0.731945E-04  0.788333E-04  0.807269E-04
  0.788333E-04  0.731945E-04  0.635210E-04  0.511416E-04  0.383311E-04  0.274824E-04
  0.198121E-04  0.148178E-04  0.119429E-04  0.982716E-05  0.819027E-05  0.681111E-05
  0.554697E-05  0.450609E-05  0.352990E-05  0.270533E-05  0.216091E-05  0.203824E-05
  0.218863E-05  0.252532E-05  0.323631E-05  0.420651E-05  0.548443E-05  0.681111E-05
  0.844696E-05  0.101601E-04  0.121806E-04  0.146628E-04  0.175446E-04  0.218896E-04
  0.280295E-04  0.365341E-04  0.469073E-04  0.579819E-04  0.679735E-04  0.746511E-04
  0.770500E-04  0.746511E-04  0.679735E-04  0.579819E-04  0.469073E-04  0.365341E-04
  0.280295E-04  0.218896E-04  0.175446E-04  0.146628E-04  0.121806E-04  0.101601E-04
  0.844696E-05  0.681111E-05  0.548443E-05  0.420651E-05  0.323631E-05  0.252532E-05
  0.218863E-05  0.260484E-05  0.295518E-05  0.372278E-05  0.493513E-05  0.654866E-05
  0.819027E-05  0.101601E-04  0.122210E-04  0.145188E-04  0.172096E-04  0.202302E-04
  0.241290E-04  0.288802E-04  0.349913E-04  0.423221E-04  0.503356E-04  0.578198E-04
  0.630473E-04  0.650185E-04  0.630473E-04  0.578198E-04  0.503356E-04  0.423221E-04
  0.349913E-04  0.288802E-04  0.241290E-04  0.202302E-04  0.172096E-04  0.145188E-04
  0.122210E-04  0.101601E-04  0.819027E-05  0.654866E-05  0.493513E-05  0.372278E-05
  0.295518E-05  0.260484E-05  0.282821E-05  0.309126E-05  0.402430E-05  0.564081E-05
  0.762539E-05  0.982716E-05  0.121806E-04  0.145188E-04  0.170960E-04  0.197691E-04
  0.226148E-04  0.260542E-04  0.298871E-04  0.343146E-04  0.391992E-04  0.443648E-04
  0.491345E-04  0.525565E-04  0.539222E-04  0.525565E-04  0.491345E-04  0.443648E-04
  0.391992E-04  0.343146E-04  0.298871E-04  0.260542E-04  0.226148E-04  0.197691E-04
  0.170960E-04  0.145188E-04  0.121806E-04  0.982716E-05  0.762539E-05  0.564081E-05
  0.402430E-05  0.309126E-05  0.282821E-05  0.395036E-05  0.425924E-05  0.538238E-05
  0.712535E-05  0.926790E-05  0.119429E-04  0.146628E-04  0.172096E-04  0.197691E-04
  0.221756E-04  0.247311E-04  0.276192E-04  0.306905E-04  0.339803E-04  0.373013E-04
  0.406714E-04  0.436647E-04  0.457761E-04  0.466295E-04  0.457761E-04  0.436647E-04
  0.406714E-04  0.373013E-04  0.339803E-04  0.306905E-04  0.276192E-04  0.247311E-04
  0.221756E-04  0.197691E-04  0.172096E-04  0.146628E-04  0.119429E-04  0.926790E-05
  0.712535E-05  0.538238E-05  0.425924E-05  0.395036E-05  0.727500E-05  0.764301E-05
  0.869782E-05  0.102461E-04  0.122709E-04  0.148178E-04  0.175446E-04  0.202302E-04
  0.226148E-04  0.247311E-04  0.269537E-04  0.291511E-04  0.314450E-04  0.338018E-04
  0.360273E-04  0.382831E-04  0.402780E-04  0.416498E-04  0.421691E-04  0.416498E-04
  0.402780E-04  0.382831E-04  0.360273E-04  0.338018E-04  0.314450E-04  0.291511E-04
  0.269537E-04  0.247311E-04  0.226148E-04  0.202302E-04  0.175446E-04  0.148178E-04
  0.122709E-04  0.102461E-04  0.869782E-05  0.764301E-05  0.727500E-05  0.139638E-04
  0.143381E-04  0.152731E-04  0.165448E-04  0.180434E-04  0.198121E-04  0.218896E-04
  0.241290E-04  0.260542E-04  0.276192E-04  0.291511E-04  0.305509E-04  0.320309E-04
  0.335702E-04  0.349769E-04  0.362863E-04  0.375507E-04  0.385139E-04  0.388251E-04
  0.385139E-04  0.375507E-04  0.362863E-04  0.349769E-04  0.335702E-04  0.320309E-04
  0.305509E-04  0.291511E-04  0.276192E-04  0.260542E-04  0.241290E-04  0.218896E-04
  0.198121E-04  0.180434E-04  0.165448E-04  0.152731E-04  0.143381E-04  0.139638E-04
  0.225473E-04  0.231947E-04  0.247794E-04  0.263261E-04  0.270791E-04  0.274824E-04
  0.280295E-04  0.288802E-04  0.298871E-04  0.306905E-04  0.314450E-04  0.320309E-04
  0.324904E-04  0.332087E-04  0.340188E-04  0.345354E-04  0.352230E-04  0.358869E-04
  0.360200E-04  0.358869E-04  0.352230E-04  0.345354E-04  0.340188E-04  0.332087E-04
  0.324904E-04  0.320309E-04  0.314450E-04  0.306905E-04  0.298871E-04  0.288802E-04
  0.280295E-04  0.274824E-04  0.270791E-04  0.263261E-04  0.247794E-04  0.231947E-04
  0.225473E-04  0.278687E-04  0.295349E-04  0.336245E-04  0.375837E-04  0.390984E-04
  0.383311E-04  0.365341E-04  0.349913E-04  0.343146E-04  0.339803E-04  0.338018E-04
  0.335702E-04  0.332087E-04  0.331033E-04  0.331632E-04  0.331106E-04  0.334508E-04
  0.338669E-04  0.338836E-04  0.338669E-04  0.334508E-04  0.331106E-04  0.331632E-04
  0.331033E-04  0.332087E-04  0.335702E-04  0.338018E-04  0.339803E-04  0.343146E-04
  0.349913E-04  0.365341E-04  0.383311E-04  0.390984E-04  0.375837E-04  0.336245E-04
  0.295349E-04  0.278687E-04  0.246844E-04  0.279632E-04  0.364331E-04  0.460049E-04
  0.515666E-04  0.511416E-04  0.469073E-04  0.423221E-04  0.391992E-04  0.373013E-04
  0.360273E-04  0.349769E-04  0.340188E-04  0.331632E-04  0.325642E-04  0.322279E-04
  0.322045E-04  0.323580E-04  0.323918E-04  0.323580E-04  0.322045E-04  0.322279E-04
  0.325642E-04  0.331632E-04  0.340188E-04  0.349769E-04  0.360273E-04  0.373013E-04
  0.391992E-04  0.423221E-04  0.469073E-04  0.511416E-04  0.515666E-04  0.460049E-04
  0.364331E-04  0.279632E-04  0.246844E-04  0.141307E-04  0.185078E-04  0.311348E-04
  0.481075E-04  0.609327E-04  0.635210E-04  0.579819E-04  0.503356E-04  0.443648E-04
  0.406714E-04  0.382831E-04  0.362863E-04  0.345354E-04  0.331106E-04  0.322279E-04
  0.317418E-04  0.314285E-04  0.314586E-04  0.315726E-04  0.314586E-04  0.314285E-04
  0.317418E-04  0.322279E-04  0.331106E-04  0.345354E-04  0.362863E-04  0.382831E-04
  0.406714E-04  0.443648E-04  0.503356E-04  0.579819E-04  0.635210E-04  0.609327E-04
  0.481075E-04  0.311348E-04  0.185078E-04  0.141307E-04  0.437396E-05  0.821502E-05
  0.218623E-04  0.445018E-04  0.653879E-04  0.731945E-04  0.679735E-04  0.578198E-04
  0.491345E-04  0.436647E-04  0.402780E-04  0.375507E-04  0.352230E-04  0.334508E-04
  0.322045E-04  0.314285E-04  0.310935E-04  0.311228E-04  0.312088E-04  0.311228E-04
  0.310935E-04  0.314285E-04  0.322045E-04  0.334508E-04  0.352230E-04  0.375507E-04
  0.402780E-04  0.436647E-04  0.491345E-04  0.578198E-04  0.679735E-04  0.731945E-04
  0.653879E-04  0.445018E-04  0.218623E-04  0.821502E-05  0.437396E-05  0.769097E-06
  0.286439E-05  0.144686E-04  0.393552E-04  0.661595E-04  0.788333E-04  0.746511E-04
  0.630473E-04  0.525565E-04  0.457761E-04  0.416498E-04  0.385139E-04  0.358869E-04
  0.338669E-04  0.323580E-04  0.314586E-04  0.311228E-04  0.310665E-04  0.310889E-04
  0.310665E-04  0.311228E-04  0.314586E-04  0.323580E-04  0.338669E-04  0.358869E-04
  0.385139E-04  0.416498E-04  0.457761E-04  0.525565E-04  0.630473E-04  0.746511E-04
  0.788333E-04  0.661595E-04  0.393552E-04  0.144686E-04  0.286439E-05  0.769097E-06
  0.664913E-06  0.178296E-05  0.119396E-04  0.371743E-04  0.661139E-04  0.807269E-04
  0.770500E-04  0.650185E-04  0.539222E-04  0.466295E-04  0.421691E-04  0.388251E-04
  0.360200E-04  0.338836E-04  0.323918E-04  0.315726E-04  0.312088E-04  0.310889E-04
  0.311089E-04  0.310889E-04  0.312088E-04  0.315726E-04  0.323918E-04  0.338836E-04
  0.360200E-04  0.388251E-04  0.421691E-04  0.466295E-04  0.539222E-04  0.650185E-04
  0.770500E-04  0.807269E-04  0.661139E-04  0.371743E-04  0.119396E-04  0.178296E-05
  0.664913E-06  0.769097E-06  0.286439E-05  0.144686E-04  0.393552E-04  0.661595E-04
  0.788333E-04  0.746511E-04  0.630473E-04  0.525565E-04  0.457761E-04  0.416498E-04
  0.385139E-04  0.358869E-04  0.338669E-04  0.323580E-04  0.314586E-04  0.311228E-04
  0.310665E-04  0.310889E-04  0.310665E-04  0.311228E-04  0.314586E-04  0.323580E-04
  0.338669E-04  0.358869E-04  0.385139E-04  0.416498E-04  0.457761E-04  0.525565E-04
  0.630473E-04  0.746511E-04  0.788333E-04  0.661595E-04  0.393552E-04  0.144686E-04
  0.286439E-05  0.769097E-06  0.437396E-05  0.821502E-05  0.218623E-04  0.445018E-04
  0.653879E-04  0.731945E-04  0.679735E-04  0.578198E-04  0.491345E-04  0.436647E-04
  0.402780E-04  0.375507E-04  0.352230E-04  0.334508E-04  0.322045E-04  0.314285E-04
  0.310935E-04  0.311228E-04  0.312088E-04  0.311228E-04  0.310935E-04  0.314285E-04
  0.322045E-04  0.334508E-04  0.352230E-04  0.375507E-04  0.402780E-04  0.436647E-04
  0.491345E-04  0.578198E-04  0.679735E-04  0.731945E-04  0.653879E-04  0.445018E-04
  0.218623E-04  0.821502E-05  0.437396E-05  0.141307E-04  0.185078E-04  0.311348E-04
  0.481075E-04  0.609327E-04  0.635210E-04  0.579819E-04  0.503356E-04  0.443648E-04
  0.406714E-04  0.382831E-04  0.362863E-04  0.345354E-04  0.331106E-04  0.322279E-04
  0.317418E-04  0.314285E-04  0.314586E-04  0.315726E-04  0.314586E-04  0.314285E-04
  0.317418E-04  0.322279E-04  0.331106E-04  0.345354E-04  0.362863E-04  0.382831E-04
  0.406714E-04  0.443648E-04  0.503356E-04  0.579819E-04  0.635210E-04  0.609327E-04
  0.481075E-04  0.311348E-04  0.185078E-04  0.141307E-04  0.246844E-04  0.279632E-04
  0.364331E-04  0.460049E-04  0.515666E-04  0.511416E-04  0.469073E-04  0.423221E-04
  0.391992E-04  0.373013E-04  0.360273E-04  0.349769E-04  0.340188E-04  0.331632E-04
  0.325642E-04  0.322279E-04  0.322045E-04  0.323580E-04  0.323918E-04  0.323580E-04
  0.322045E-04  0.322279E-04  0.325642E-04  0.331632E-04  0.340188E-04  0.349769E-04
  0.360273E-04  0.373013E-04  0.391992E-04  0.423221E-04  0.469073E-04  0.511416E-04
  0.515666E-04  0.460049E-04  0.364331E-04  0.279632E-04  0.246844E-04  0.278687E-04
  0.295349E-04  0.336245E-04  0.375837E-04  0.390984E-04  0.383311E-04  0.365341E-04
  0.349913E-04  0.343146E-04  0.339803E-04  0.338018E-04  0.335702E-04  0.332087E-04
  0.331033E-04  0.331632E-04  0.331106E-04  0.334508E-04  0.338669E-04  0.338836E-04
  0.338669E-04  0.334508E-04  0.331106E-04  0.331632E-04  0.331033E-04  0.332087E-04
  0.335702E-04  0.338018E-04  0.339803E-04  0.343146E-04  0.349913E-04  0.365341E-04
  0.383311E-04  0.390984E-04  0.375837E-04  0.336245E-04  0.295349E-04  0.278687E-04
  0.225473E-04  0.231947E-04  0.247794E-04  0.263261E-04  0.270791E-04  0.274824E-04
  0.280295E-04  0.288802E-04  0.298871E-04  0.306905E-04  0.314450E-04  0.320309E-04
  0.324904E-04  0.332087E-04  0.340188E-04  0.345354E-04  0.352230E-04  0.358869E-04
  0.360200E-04  0.358869E-04  0.352230E-04  0.345354E-04  0.340188E-04  0.332087E-04
  0.324904E-04  0.320309E-04  0.314450E-04  0.306905E-04  0.298871E-04  0.288802E-04
  0.280295E-04  0.274824E-04  0.270791E-04  0.263261E-04  0.247794E-04  0.231947E-04
  0.225473E-04  0.139638E-04  0.143381E-04  0.152731E-04  0.165448E-04  0.180434E-04
  0.198121E-04  0.218896E-04  0.241290E-04  0.260542E-04  0.276192E-04  0.291511E-04
  0.305509E-04  0.320309E-04  0.335702E-04  0.349769E-04  0.362863E-04  0.375507E-04
  0.385139E-04  0.388251E-04  0.385139E-04  0.375507E-04  0.362863E-04  0.349769E-04
  0.335702E-04  0.320309E-04  0.305509E-04  0.291511E-04  0.276192E-04  0.260542E-04
  0.241290E-04  0.218896E-04  0.198121E-04  0.180434E-04  0.165448E-04  0.152731E-04
  0.143381E-04  0.139638E-04  0.727500E-05  0.764301E-05  0.869782E-05  0.102461E-04
  0.122709E-04  0.148178E-04  0.175446E-04  0.202302E-04  0.226148E-04  0.247311E-04
  0.269537E-04  0.291511E-04  0.314450E-04  0.338018E-04  0.360273E-04  0.382831E-04
  0.402780E-04  0.416498E-04  0.421691E-04  0.416498E-04  0.402780E-04  0.382831E-04
  0.360273E-04  0.338018E-04  0.314450E-04  0.291511E-04  0.269537E-04  0.247311E-04
  0.226148E-04  0.202302E-04  0.175446E-04  0.148178E-04  0.122709E-04  0.102461E-04
  0.869782E-05  0.764301E-05  0.727500E-05  0.395036E-05  0.425924E-05  0.538238E-05
  0.712535E-05  0.926790E-05  0.119429E-04  0.146628E-04  0.172096E-04  0.197691E-04
  0.221756E-04  0.247311E-04  0.276192E-04  0.306905E-04  0.339803E-04  0.373013E-04
  0.406714E-04  0.436647E-04  0.457761E-04  0.466295E-04  0.457761E-04  0.436647E-04
  0.406714E-04  0.373013E-04  0.339803E-04  0.306905E-04  0.276192E-04  0.247311E-04
  0.221756E-04  0.197691E-04  0.172096E-04  0.146628E-04  0.119429E-04  0.926790E-05
  0.712535E-05  0.538238E-05  0.425924E-05  0.395036E-05  0.282821E-05  0.309126E-05
  0.402430E-05  0.564081E-05  0.762539E-05  0.982716E-05  0.121806E-04  0.145188E-04
  0.170960E-04  0.197691E-04  0.226148E-04  0.260542E-04  0.298871E-04  0.343146E-04
  0.391992E-04  0.443648E-04  0.491345E-04  0.525565E-04  0.539222E-04  0.525565E-04
  0.491345E-04  0.443648E-04  0.391992E-04  0.343146E-04  0.298871E-04  0.260542E-04
  0.226148E-04  0.197691E-04  0.170960E-04  0.145188E-04  0.121806E-04  0.982716E-05
  0.762539E-05  0.564081E-05  0.402430E-05  0.309126E-05  0.282821E-05  0.260484E-05
  0.295518E-05  0.372278E-05  0.493513E-05  0.654866E-05  0.819027E-05  0.101601E-04
  0.122210E-04  0.145188E-04  0.172096E-04  0.202302E-04  0.241290E-04  0.288802E-04
  0.349913E-04  0.423221E-04  0.503356E-04  0.578198E-04  0.630473E-04  0.650185E-04
  0.630473E-04  0.578198E-04  0.503356E-04  0.423221E-04  0.349913E-04  0.288802E-04
  0.241290E-04  0.202302E-04  0.172096E-04  0.145188E-04  0.122210E-04  0.101601E-04
  0.819027E-05  0.654866E-05  0.493513E-05  0.372278E-05  0.295518E-05  0.260484E-05
  0.218863E-05  0.252532E-05  0.323631E-05  0.420651E-05  0.548443E-05  0.681111E-05
  0.844696E-05  0.101601E-04  0.121806E-04  0.146628E-04  0.175446E-04  0.218896E-04
  0.280295E-04  0.365341E-04  0.469073E-04  0.579819E-04  0.679735E-04  0.746511E-04
  0.770500E-04  0.746511E-04  0.679735E-04  0.579819E-04  0.469073E-04  0.365341E-04
  0.280295E-04  0.218896E-04  0.175446E-04  0.146628E-04  0.121806E-04  0.101601E-04
  0.844696E-05  0.681111E-05  0.548443E-05  0.420651E-05  0.323631E-05  0.252532E-05
  0.218863E-05  0.203824E-05  0.216091E-05  0.270533E-05  0.352990E-05  0.450609E-05
  0.554697E-05  0.681111E-05  0.819027E-05  0.982716E-05  0.119429E-04  0.148178E-04
  0.198121E-04  0.274824E-04  0.383311E-04  0.511416E-04  0.635210E-04  0.731945E-04
  0.788333E-04  0.807269E-04  0.788333E-04  0.731945E-04  0.635210E-04  0.511416E-04
  0.383311E-04  0.274824E-04  0.198121E-04  0.148178E-04  0.119429E-04  0.982716E-05
  0.819027E-05  0.681111E-05  0.554697E-05  0.450609E-05  0.352990E-05  0.270533E-05
  0.216091E-05  0.203824E-05  0.151395E-05  0.160207E-05  0.211703E-05  0.274517E-05
  0.355858E-05  0.450609E-05  0.548443E-05  0.654866E-05  0.762539E-05  0.926790E-05
  0.122709E-04  0.180434E-04  0.270791E-04  0.390984E-04  0.515666E-04  0.609327E-04
  0.653879E-04  0.661595E-04  0.661139E-04  0.661595E-04  0.653879E-04  0.609327E-04
  0.515666E-04  0.390984E-04  0.270791E-04  0.180434E-04  0.122709E-04  0.926790E-05
  0.762539E-05  0.654866E-05  0.548443E-05  0.450609E-05  0.355858E-05  0.274517E-05
  0.211703E-05  0.160207E-05  0.151395E-05  0.822395E-06  0.958022E-06  0.156433E-05
  0.209449E-05  0.274517E-05  0.352990E-05  0.420651E-05  0.493513E-05  0.564081E-05
  0.712535E-05  0.102461E-04  0.165448E-04  0.263261E-04  0.375837E-04  0.460049E-04
  0.481075E-04  0.445018E-04  0.393552E-04  0.371743E-04  0.393552E-04  0.445018E-04
  0.481075E-04  0.460049E-04  0.375837E-04  0.263261E-04  0.165448E-04  0.102461E-04
  0.712535E-05  0.564081E-05  0.493513E-05  0.420651E-05  0.352990E-05  0.274517E-05
  0.209449E-05  0.156433E-05  0.958022E-06  0.822395E-06  0.583263E-06  0.571556E-06
  0.103563E-05  0.156433E-05  0.211703E-05  0.270533E-05  0.323631E-05  0.372278E-05
  0.402430E-05  0.538238E-05  0.869782E-05  0.152731E-04  0.247794E-04  0.336245E-04
  0.364331E-04  0.311348E-04  0.218623E-04  0.144686E-04  0.119396E-04  0.144686E-04
  0.218623E-04  0.311348E-04  0.364331E-04  0.336245E-04  0.247794E-04  0.152731E-04
  0.869782E-05  0.538238E-05  0.402430E-05  0.372278E-05  0.323631E-05  0.270533E-05
  0.211703E-05  0.156433E-05  0.103563E-05  0.571556E-06  0.583263E-06  0.238807E-06
  0.238449E-06  0.571556E-06  0.958022E-06  0.160207E-05  0.216091E-05  0.252532E-05
  0.295518E-05  0.309126E-05  0.425924E-05  0.764301E-05  0.143381E-04  0.231947E-04
  0.295349E-04  0.279632E-04  0.185078E-04  0.821502E-05  0.286439E-05  0.178296E-05
  0.286439E-05  0.821502E-05  0.185078E-04  0.279632E-04  0.295349E-04  0.231947E-04
  0.143381E-04  0.764301E-05  0.425924E-05  0.309126E-05  0.295518E-05  0.252532E-05
  0.216091E-05  0.160207E-05  0.958022E-06  0.571556E-06  0.238449E-06  0.238807E-06
  0.119308E-06  0.238807E-06  0.583263E-06  0.822395E-06  0.151395E-05  0.203824E-05
  0.218863E-05  0.260484E-05  0.282821E-05  0.395036E-05  0.727500E-05  0.139638E-04
  0.225473E-04  0.278687E-04  0.246844E-04  0.141307E-04  0.437396E-05  0.769097E-06
  0.664913E-06  0.769097E-06  0.437396E-05  0.141307E-04  0.246844E-04  0.278687E-04
  0.225473E-04  0.139638E-04  0.727500E-05  0.395036E-05  0.282821E-05  0.260484E-05
  0.218863E-05  0.203824E-05  0.151395E-05  0.822395E-06  0.583263E-06  0.238807E-06
  0.119308E-06  0.624353E-07  0.236264E-06  0.771621E-06  0.131649E-05  0.211845E-05
  0.284682E-05  0.345897E-05  0.376973E-05  0.385746E-05  0.494428E-05  0.790107E-05
  0.142756E-04  0.227605E-04  0.287500E-04  0.267415E-04  0.173078E-04  0.716123E-05
  0.173354E-05  0.757216E-06  0.173354E-05  0.716123E-05  0.173078E-04  0.267415E-04
  0.287500E-04  0.227605E-04  0.142756E-04  0.790107E-05  0.494428E-05  0.385746E-05
  0.376973E-05  0.345897E-05  0.284682E-05  0.211845E-05  0.131649E-05  0.771621E-06
  0.236264E-06  0.624353E-07  0.236264E-06  0.303985E-06  0.784204E-06  0.138738E-05
  0.217473E-05  0.293564E-05  0.371207E-05  0.422436E-05  0.436161E-05  0.537101E-05
  0.831948E-05  0.147035E-04  0.233551E-04  0.303052E-04  0.298488E-04  0.213282E-04
  0.108319E-04  0.405373E-05  0.221397E-05  0.405373E-05  0.108319E-04  0.213282E-04
  0.298488E-04  0.303052E-04  0.233551E-04  0.147035E-04  0.831948E-05  0.537101E-05
  0.436161E-05  0.422436E-05  0.371207E-05  0.293564E-05  0.217473E-05  0.138738E-05
  0.784204E-06  0.303985E-06  0.236264E-06  0.771621E-06  0.784204E-06  0.129677E-05
  0.199011E-05  0.283478E-05  0.362743E-05  0.435234E-05  0.508213E-05  0.558434E-05
  0.667381E-05  0.951482E-05  0.158043E-04  0.248915E-04  0.340013E-04  0.376067E-04
  0.329279E-04  0.238660E-04  0.159543E-04  0.130249E-04  0.159543E-04  0.238660E-04
  0.329279E-04  0.376067E-04  0.340013E-04  0.248915E-04  0.158043E-04  0.951482E-05
  0.667381E-05  0.558434E-05  0.508213E-05  0.435234E-05  0.362743E-05  0.283478E-05
  0.199011E-05  0.129677E-05  0.784204E-06  0.771621E-06  0.131649E-05  0.138738E-05
  0.199011E-05  0.267965E-05  0.363298E-05  0.467339E-05  0.543424E-05  0.631807E-05
  0.725889E-05  0.860228E-05  0.113216E-04  0.173496E-04  0.267350E-04  0.378235E-04
  0.464288E-04  0.487637E-04  0.453231E-04  0.401361E-04  0.379013E-04  0.401361E-04
  0.453231E-04  0.487637E-04  0.464288E-04  0.378235E-04  0.267350E-04  0.173496E-04
  0.113216E-04  0.860228E-05  0.725889E-05  0.631807E-05  0.543424E-05  0.467339E-05
  0.363298E-05  0.267965E-05  0.199011E-05  0.138738E-05  0.131649E-05  0.211845E-05
  0.217473E-05  0.283478E-05  0.363298E-05  0.454602E-05  0.576971E-05  0.695726E-05
  0.814026E-05  0.943677E-05  0.111811E-04  0.139395E-04  0.193561E-04  0.281454E-04
  0.398668E-04  0.519832E-04  0.611167E-04  0.652438E-04  0.658452E-04  0.658755E-04
  0.658452E-04  0.652438E-04  0.611167E-04  0.519832E-04  0.398668E-04  0.281454E-04
  0.193561E-04  0.139395E-04  0.111811E-04  0.943677E-05  0.814026E-05  0.695726E-05
  0.576971E-05  0.454602E-05  0.363298E-05  0.283478E-05  0.217473E-05  0.211845E-05
  0.284682E-05  0.293564E-05  0.362743E-05  0.467339E-05  0.576971E-05  0.707454E-05
  0.858337E-05  0.101249E-04  0.119200E-04  0.141982E-04  0.171387E-04  0.218673E-04
  0.292935E-04  0.399009E-04  0.522197E-04  0.641597E-04  0.733595E-04  0.786955E-04
  0.805892E-04  0.786955E-04  0.733595E-04  0.641597E-04  0.522197E-04  0.399009E-04
  0.292935E-04  0.218673E-04  0.171387E-04  0.141982E-04  0.119200E-04  0.101249E-04
  0.858337E-05  0.707454E-05  0.576971E-05  0.467339E-05  0.362743E-05  0.293564E-05
  0.284682E-05  0.345897E-05  0.371207E-05  0.435234E-05  0.543424E-05  0.695726E-05
  0.858337E-05  0.104751E-04  0.124736E-04  0.146335E-04  0.171981E-04  0.203548E-04
  0.246813E-04  0.306420E-04  0.390416E-04  0.491326E-04  0.598589E-04  0.695524E-04
  0.759293E-04  0.781660E-04  0.759293E-04  0.695524E-04  0.598589E-04  0.491326E-04
  0.390416E-04  0.306420E-04  0.246813E-04  0.203548E-04  0.171981E-04  0.146335E-04
  0.124736E-04  0.104751E-04  0.858337E-05  0.695726E-05  0.543424E-05  0.435234E-05
  0.371207E-05  0.345897E-05  0.376973E-05  0.422436E-05  0.508213E-05  0.631807E-05
  0.814026E-05  0.101249E-04  0.124736E-04  0.149781E-04  0.174773E-04  0.203335E-04
  0.236425E-04  0.275842E-04  0.323463E-04  0.384957E-04  0.458360E-04  0.536750E-04
  0.610130E-04  0.662072E-04  0.680897E-04  0.662072E-04  0.610130E-04  0.536750E-04
  0.458360E-04  0.384957E-04  0.323463E-04  0.275842E-04  0.236425E-04  0.203335E-04
  0.174773E-04  0.149781E-04  0.124736E-04  0.101249E-04  0.814026E-05  0.631807E-05
  0.508213E-05  0.422436E-05  0.376973E-05  0.385746E-05  0.436161E-05  0.558434E-05
  0.725889E-05  0.943677E-05  0.119200E-04  0.146335E-04  0.174773E-04  0.202191E-04
  0.231660E-04  0.263953E-04  0.299796E-04  0.340580E-04  0.385714E-04  0.437040E-04
  0.489834E-04  0.537755E-04  0.574140E-04  0.587942E-04  0.574140E-04  0.537755E-04
  0.489834E-04  0.437040E-04  0.385714E-04  0.340580E-04  0.299796E-04  0.263953E-04
  0.231660E-04  0.202191E-04  0.174773E-04  0.146335E-04  0.119200E-04  0.943677E-05
  0.725889E-05  0.558434E-05  0.436161E-05  0.385746E-05  0.494428E-05  0.537101E-05
  0.667381E-05  0.860228E-05  0.111811E-04  0.141982E-04  0.171981E-04  0.203335E-04
  0.231660E-04  0.259182E-04  0.288978E-04  0.320191E-04  0.354949E-04  0.389022E-04
  0.425603E-04  0.462328E-04  0.494807E-04  0.519015E-04  0.527080E-04  0.519015E-04
  0.494807E-04  0.462328E-04  0.425603E-04  0.389022E-04  0.354949E-04  0.320191E-04
  0.288978E-04  0.259182E-04  0.231660E-04  0.203335E-04  0.171981E-04  0.141982E-04
  0.111811E-04  0.860228E-05  0.667381E-05  0.537101E-05  0.494428E-05  0.790107E-05
  0.831948E-05  0.951482E-05  0.113216E-04  0.139395E-04  0.171387E-04  0.203548E-04
  0.236425E-04  0.263953E-04  0.288978E-04  0.314489E-04  0.338794E-04  0.366764E-04
  0.392510E-04  0.418358E-04  0.443686E-04  0.466831E-04  0.484884E-04  0.490173E-04
  0.484884E-04  0.466831E-04  0.443686E-04  0.418358E-04  0.392510E-04  0.366764E-04
  0.338794E-04  0.314489E-04  0.288978E-04  0.263953E-04  0.236425E-04  0.203548E-04
  0.171387E-04  0.139395E-04  0.113216E-04  0.951482E-05  0.831948E-05  0.790107E-05
  0.142756E-04  0.147035E-04  0.158043E-04  0.173496E-04  0.193561E-04  0.218673E-04
  0.246813E-04  0.275842E-04  0.299796E-04  0.320191E-04  0.338794E-04  0.356034E-04
  0.376725E-04  0.394059E-04  0.411970E-04  0.429922E-04  0.445242E-04  0.458569E-04
  0.462994E-04  0.458569E-04  0.445242E-04  0.429922E-04  0.411970E-04  0.394059E-04
  0.376725E-04  0.356034E-04  0.338794E-04  0.320191E-04  0.299796E-04  0.275842E-04
  0.246813E-04  0.218673E-04  0.193561E-04  0.173496E-04  0.158043E-04  0.147035E-04
  0.142756E-04  0.227605E-04  0.233551E-04  0.248915E-04  0.267350E-04  0.281454E-04
  0.292935E-04  0.306420E-04  0.323463E-04  0.340580E-04  0.354949E-04  0.366764E-04
  0.376725E-04  0.388380E-04  0.397075E-04  0.406988E-04  0.418592E-04  0.428422E-04
  0.437501E-04  0.440833E-04  0.437501E-04  0.428422E-04  0.418592E-04  0.406988E-04
  0.397075E-04  0.388380E-04  0.376725E-04  0.366764E-04  0.354949E-04  0.340580E-04
  0.323463E-04  0.306420E-04  0.292935E-04  0.281454E-04  0.267350E-04  0.248915E-04
  0.233551E-04  0.227605E-04  0.287500E-04  0.303052E-04  0.340013E-04  0.378235E-04
  0.398668E-04  0.399009E-04  0.390416E-04  0.384957E-04  0.385714E-04  0.389022E-04
  0.392510E-04  0.394059E-04  0.397075E-04  0.399268E-04  0.401923E-04  0.407358E-04
  0.414033E-04  0.420403E-04  0.422518E-04  0.420403E-04  0.414033E-04  0.407358E-04
  0.401923E-04  0.399268E-04  0.397075E-04  0.394059E-04  0.392510E-04  0.389022E-04
  0.385714E-04  0.384957E-04  0.390416E-04  0.399009E-04  0.398668E-04  0.378235E-04
  0.340013E-04  0.303052E-04  0.287500E-04  0.267415E-04  0.298488E-04  0.376067E-04
  0.464288E-04  0.519832E-04  0.522197E-04  0.491326E-04  0.458360E-04  0.437040E-04
  0.425603E-04  0.418358E-04  0.411970E-04  0.406988E-04  0.401923E-04  0.400282E-04
  0.402021E-04  0.405125E-04  0.409199E-04  0.410648E-04  0.409199E-04  0.405125E-04
  0.402021E-04  0.400282E-04  0.401923E-04  0.406988E-04  0.411970E-04  0.418358E-04
  0.425603E-04  0.437040E-04  0.458360E-04  0.491326E-04  0.522197E-04  0.519832E-04
  0.464288E-04  0.376067E-04  0.298488E-04  0.267415E-04  0.173078E-04  0.213282E-04
  0.329279E-04  0.487637E-04  0.611167E-04  0.641597E-04  0.598589E-04  0.536750E-04
  0.489834E-04  0.462328E-04  0.443686E-04  0.429922E-04  0.418592E-04  0.407358E-04
  0.402021E-04  0.400003E-04  0.400624E-04  0.404216E-04  0.405520E-04  0.404216E-04
  0.400624E-04  0.400003E-04  0.402021E-04  0.407358E-04  0.418592E-04  0.429922E-04
  0.443686E-04  0.462328E-04  0.489834E-04  0.536750E-04  0.598589E-04  0.641597E-04
  0.611167E-04  0.487637E-04  0.329279E-04  0.213282E-04  0.173078E-04  0.716123E-05
  0.108319E-04  0.238660E-04  0.453231E-04  0.652438E-04  0.733595E-04  0.695524E-04
  0.610130E-04  0.537755E-04  0.494807E-04  0.466831E-04  0.445242E-04  0.428422E-04
  0.414033E-04  0.405125E-04  0.400624E-04  0.401231E-04  0.403549E-04  0.403477E-04
  0.403549E-04  0.401231E-04  0.400624E-04  0.405125E-04  0.414033E-04  0.428422E-04
  0.445242E-04  0.466831E-04  0.494807E-04  0.537755E-04  0.610130E-04  0.695524E-04
  0.733595E-04  0.652438E-04  0.453231E-04  0.238660E-04  0.108319E-04  0.716123E-05
  0.173354E-05  0.405373E-05  0.159543E-04  0.401361E-04  0.658452E-04  0.786955E-04
  0.759293E-04  0.662072E-04  0.574140E-04  0.519015E-04  0.484884E-04  0.458569E-04
  0.437501E-04  0.420403E-04  0.409199E-04  0.404216E-04  0.403549E-04  0.404643E-04
  0.405081E-04  0.404643E-04  0.403549E-04  0.404216E-04  0.409199E-04  0.420403E-04
  0.437501E-04  0.458569E-04  0.484884E-04  0.519015E-04  0.574140E-04  0.662072E-04
  0.759293E-04  0.786955E-04  0.658452E-04  0.401361E-04  0.159543E-04  0.405373E-05
  0.173354E-05  0.757216E-06  0.221397E-05  0.130249E-04  0.379013E-04  0.658755E-04
  0.805892E-04  0.781660E-04  0.680897E-04  0.587942E-04  0.527080E-04  0.490173E-04
  0.462994E-04  0.440833E-04  0.422518E-04  0.410648E-04  0.405520E-04  0.403477E-04
  0.405081E-04  0.407223E-04  0.405081E-04  0.403477E-04  0.405520E-04  0.410648E-04
  0.422518E-04  0.440833E-04  0.462994E-04  0.490173E-04  0.527080E-04  0.587942E-04