 CRYSTAL
 PRIMVEC
    2.728555510    2.728555510    0.000000000
   -2.728555510    2.728555510    0.000000000
    0.000000000    0.000000000   10.914222040
 PRIMCOORD
           2           1
O         0.000000000    2.728555510    5.014332906
C         0.000000000    2.728555510    3.855824988
BEGIN_BLOCK_DATAGRID_3D
3D_PWSCF
BEGIN_DATAGRID_3D_UNKNOWN
          37          37          97
  0.000000  0.000000  0.000000
    2.728556    2.728556    0.000000
   -2.728556    2.728556    0.000000
    0.000000    0.000000   10.914222
 -0.456004E-03 -0.456114E-03 -0.455933E-03 -0.455787E-03 -0.456244E-03 -0.456340E-03
 -0.456228E-03 -0.456193E-03 -0.456037E-03 -0.456135E-03 -0.456050E-03 -0.455951E-03
 -0.456019E-03 -0.455999E-03 -0.455956E-03 -0.455894E-03 -0.456035E-03 -0.456062E-03
 -0.455939E-03 -0.456062E-03 -0.456035E-03 -0.455894E-03 -0.455956E-03 -0.455999E-03
 -0.456019E-03 -0.455951E-03 -0.456050E-03 -0.456135E-03 -0.456037E-03 -0.456193E-03
 -0.456228E-03 -0.456340E-03 -0.456244E-03 -0.455787E-03 -0.455933E-03 -0.456114E-03
 -0.456004E-03 -0.456114E-03 -0.456110E-03 -0.455942E-03 -0.455871E-03 -0.456159E-03
 -0.456191E-03 -0.456193E-03 -0.456223E-03 -0.455999E-03 -0.456030E-03 -0.456063E-03
 -0.456036E-03 -0.456033E-03 -0.456021E-03 -0.456006E-03 -0.455910E-03 -0.456048E-03
 -0.456095E-03 -0.455979E-03 -0.456095E-03 -0.456048E-03 -0.455910E-03 -0.456006E-03
 -0.456021E-03 -0.456033E-03 -0.456036E-03 -0.456063E-03 -0.456030E-03 -0.455999E-03
 -0.456223E-03 -0.456193E-03 -0.456191E-03 -0.456159E-03 -0.455871E-03 -0.455942E-03
 -0.456110E-03 -0.456114E-03 -0.455933E-03 -0.455942E-03 -0.456112E-03 -0.456221E-03
 -0.456142E-03 -0.456001E-03 -0.456018E-03 -0.456118E-03 -0.456005E-03 -0.456037E-03
 -0.456227E-03 -0.456311E-03 -0.456153E-03 -0.456071E-03 -0.456107E-03 -0.455993E-03
 -0.456022E-03 -0.456093E-03 -0.456068E-03 -0.456093E-03 -0.456022E-03 -0.455993E-03
 -0.456107E-03 -0.456071E-03 -0.456153E-03 -0.456311E-03 -0.456227E-03 -0.456037E-03
 -0.456005E-03 -0.456118E-03 -0.456018E-03 -0.456001E-03 -0.456142E-03 -0.456221E-03
 -0.456112E-03 -0.455942E-03 -0.455933E-03 -0.455787E-03 -0.455871E-03 -0.456221E-03
 -0.456249E-03 -0.455964E-03 -0.455940E-03 -0.455982E-03 -0.456057E-03 -0.456121E-03
 -0.456126E-03 -0.456262E-03 -0.456457E-03 -0.456270E-03 -0.456037E-03 -0.456141E-03
 -0.456199E-03 -0.456012E-03 -0.455973E-03 -0.456085E-03 -0.455973E-03 -0.456012E-03
 -0.456199E-03 -0.456141E-03 -0.456037E-03 -0.456270E-03 -0.456457E-03 -0.456262E-03
 -0.456126E-03 -0.456121E-03 -0.456057E-03 -0.455982E-03 -0.455940E-03 -0.455964E-03
 -0.456249E-03 -0.456221E-03 -0.455871E-03 -0.455787E-03 -0.456244E-03 -0.456159E-03
 -0.456142E-03 -0.455964E-03 -0.455730E-03 -0.455911E-03 -0.456099E-03 -0.456156E-03
 -0.456257E-03 -0.456179E-03 -0.456085E-03 -0.456215E-03 -0.456133E-03 -0.455936E-03
 -0.456024E-03 -0.456200E-03 -0.455974E-03 -0.455955E-03 -0.456213E-03 -0.455955E-03
 -0.455974E-03 -0.456200E-03 -0.456024E-03 -0.455936E-03 -0.456133E-03 -0.456215E-03
 -0.456085E-03 -0.456179E-03 -0.456257E-03 -0.456156E-03 -0.456099E-03 -0.455911E-03
 -0.455730E-03 -0.455964E-03 -0.456142E-03 -0.456159E-03 -0.456244E-03 -0.456340E-03
 -0.456191E-03 -0.456001E-03 -0.455940E-03 -0.455911E-03 -0.455979E-03 -0.456082E-03
 -0.456117E-03 -0.456287E-03 -0.456259E-03 -0.455961E-03 -0.455858E-03 -0.455949E-03
 -0.456077E-03 -0.455977E-03 -0.455910E-03 -0.455829E-03 -0.455925E-03 -0.456181E-03
 -0.455925E-03 -0.455829E-03 -0.455910E-03 -0.455977E-03 -0.456077E-03 -0.455949E-03
 -0.455858E-03 -0.455961E-03 -0.456259E-03 -0.456287E-03 -0.456117E-03 -0.456082E-03
 -0.455979E-03 -0.455911E-03 -0.455940E-03 -0.456001E-03 -0.456191E-03 -0.456340E-03
 -0.456228E-03 -0.456193E-03 -0.456018E-03 -0.455982E-03 -0.456099E-03 -0.456082E-03
 -0.456024E-03 -0.455962E-03 -0.456100E-03 -0.456115E-03 -0.455877E-03 -0.455811E-03
 -0.456026E-03 -0.456286E-03 -0.456023E-03 -0.455894E-03 -0.456050E-03 -0.456002E-03
 -0.455991E-03 -0.456002E-03 -0.456050E-03 -0.455894E-03 -0.456023E-03 -0.456286E-03
 -0.456026E-03 -0.455811E-03 -0.455877E-03 -0.456115E-03 -0.456100E-03 -0.455962E-03
 -0.456024E-03 -0.456082E-03 -0.456099E-03 -0.455982E-03 -0.456018E-03 -0.456193E-03
 -0.456228E-03 -0.456193E-03 -0.456223E-03 -0.456118E-03 -0.456057E-03 -0.456156E-03
 -0.456117E-03 -0.455962E-03 -0.455819E-03 -0.455898E-03 -0.455971E-03 -0.455957E-03
 -0.456043E-03 -0.456176E-03 -0.456245E-03 -0.456034E-03 -0.456105E-03 -0.456333E-03
 -0.456204E-03 -0.456106E-03 -0.456204E-03 -0.456333E-03 -0.456105E-03 -0.456034E-03
 -0.456245E-03 -0.456176E-03 -0.456043E-03 -0.455957E-03 -0.455971E-03 -0.455898E-03
 -0.455819E-03 -0.455962E-03 -0.456117E-03 -0.456156E-03 -0.456057E-03 -0.456118E-03
 -0.456223E-03 -0.456193E-03 -0.456037E-03 -0.455999E-03 -0.456005E-03 -0.456121E-03
 -0.456257E-03 -0.456287E-03 -0.456100E-03 -0.455898E-03 -0.455917E-03 -0.455995E-03
 -0.456008E-03 -0.456002E-03 -0.456033E-03 -0.456072E-03 -0.456076E-03 -0.456146E-03
 -0.456099E-03 -0.455995E-03 -0.456005E-03 -0.455995E-03 -0.456099E-03 -0.456146E-03
 -0.456076E-03 -0.456072E-03 -0.456033E-03 -0.456002E-03 -0.456008E-03 -0.455995E-03
 -0.455917E-03 -0.455898E-03 -0.456100E-03 -0.456287E-03 -0.456257E-03 -0.456121E-03
 -0.456005E-03 -0.455999E-03 -0.456037E-03 -0.456135E-03 -0.456030E-03 -0.456037E-03
 -0.456126E-03 -0.456179E-03 -0.456259E-03 -0.456115E-03 -0.455971E-03 -0.455995E-03
 -0.456107E-03 -0.456141E-03 -0.456025E-03 -0.456008E-03 -0.456010E-03 -0.456005E-03
 -0.456019E-03 -0.455979E-03 -0.455885E-03 -0.455812E-03 -0.455885E-03 -0.455979E-03
 -0.456019E-03 -0.456005E-03 -0.456010E-03 -0.456008E-03 -0.456025E-03 -0.456141E-03
 -0.456107E-03 -0.455995E-03 -0.455971E-03 -0.456115E-03 -0.456259E-03 -0.456179E-03
 -0.456126E-03 -0.456037E-03 -0.456030E-03 -0.456135E-03 -0.456050E-03 -0.456063E-03
 -0.456227E-03 -0.456262E-03 -0.456085E-03 -0.455961E-03 -0.455877E-03 -0.455957E-03
 -0.456008E-03 -0.456141E-03 -0.456305E-03 -0.456223E-03 -0.456193E-03 -0.456123E-03
 -0.455989E-03 -0.455944E-03 -0.456081E-03 -0.456022E-03 -0.455813E-03 -0.456022E-03
 -0.456081E-03 -0.455944E-03 -0.455989E-03 -0.456123E-03 -0.456193E-03 -0.456223E-03
 -0.456305E-03 -0.456141E-03 -0.456008E-03 -0.455957E-03 -0.455877E-03 -0.455961E-03
 -0.456085E-03 -0.456262E-03 -0.456227E-03 -0.456063E-03 -0.456050E-03 -0.455951E-03
 -0.456036E-03 -0.456311E-03 -0.456457E-03 -0.456215E-03 -0.455858E-03 -0.455811E-03
 -0.456043E-03 -0.456002E-03 -0.456025E-03 -0.456223E-03 -0.456096E-03 -0.455987E-03
 -0.456077E-03 -0.456202E-03 -0.456133E-03 -0.456104E-03 -0.456049E-03 -0.455889E-03
 -0.456049E-03 -0.456104E-03 -0.456133E-03 -0.456202E-03 -0.456077E-03 -0.455987E-03
 -0.456096E-03 -0.456223E-03 -0.456025E-03 -0.456002E-03 -0.456043E-03 -0.455811E-03
 -0.455858E-03 -0.456215E-03 -0.456457E-03 -0.456311E-03 -0.456036E-03 -0.455951E-03
 -0.456019E-03 -0.456033E-03 -0.456153E-03 -0.456270E-03 -0.456133E-03 -0.455949E-03
 -0.456026E-03 -0.456176E-03 -0.456033E-03 -0.456008E-03 -0.456193E-03 -0.455987E-03
 -0.455719E-03 -0.455882E-03 -0.456206E-03 -0.456148E-03 -0.456032E-03 -0.456099E-03
 -0.456091E-03 -0.456099E-03 -0.456032E-03 -0.456148E-03 -0.456206E-03 -0.455882E-03
 -0.455719E-03 -0.455987E-03 -0.456193E-03 -0.456008E-03 -0.456033E-03 -0.456176E-03
 -0.456026E-03 -0.455949E-03 -0.456133E-03 -0.456270E-03 -0.456153E-03 -0.456033E-03
 -0.456019E-03 -0.455999E-03 -0.456021E-03 -0.456071E-03 -0.456037E-03 -0.455936E-03
 -0.456077E-03 -0.456286E-03 -0.456245E-03 -0.456072E-03 -0.456010E-03 -0.456123E-03
 -0.456077E-03 -0.455882E-03 -0.455915E-03 -0.456084E-03 -0.455996E-03 -0.455952E-03
 -0.456069E-03 -0.456082E-03 -0.456069E-03 -0.455952E-03 -0.455996E-03 -0.456084E-03
 -0.455915E-03 -0.455882E-03 -0.456077E-03 -0.456123E-03 -0.456010E-03 -0.456072E-03
 -0.456245E-03 -0.456286E-03 -0.456077E-03 -0.455936E-03 -0.456037E-03 -0.456071E-03
 -0.456021E-03 -0.455999E-03 -0.455956E-03 -0.456006E-03 -0.456107E-03 -0.456141E-03
 -0.456024E-03 -0.455977E-03 -0.456023E-03 -0.456034E-03 -0.456076E-03 -0.456005E-03
 -0.455989E-03 -0.456202E-03 -0.456206E-03 -0.456084E-03 -0.456235E-03 -0.456278E-03
 -0.456191E-03 -0.456157E-03 -0.456109E-03 -0.456157E-03 -0.456191E-03 -0.456278E-03
 -0.456235E-03 -0.456084E-03 -0.456206E-03 -0.456202E-03 -0.455989E-03 -0.456005E-03
 -0.456076E-03 -0.456034E-03 -0.456023E-03 -0.455977E-03 -0.456024E-03 -0.456141E-03
 -0.456107E-03 -0.456006E-03 -0.455956E-03 -0.455894E-03 -0.455910E-03 -0.455993E-03
 -0.456199E-03 -0.456200E-03 -0.455910E-03 -0.455894E-03 -0.456105E-03 -0.456146E-03
 -0.456019E-03 -0.455944E-03 -0.456133E-03 -0.456148E-03 -0.455996E-03 -0.456278E-03
 -0.456463E-03 -0.456324E-03 -0.456327E-03 -0.456377E-03 -0.456327E-03 -0.456324E-03
 -0.456463E-03 -0.456278E-03 -0.455996E-03 -0.456148E-03 -0.456133E-03 -0.455944E-03
 -0.456019E-03 -0.456146E-03 -0.456105E-03 -0.455894E-03 -0.455910E-03 -0.456200E-03
 -0.456199E-03 -0.455993E-03 -0.455910E-03 -0.455894E-03 -0.456035E-03 -0.456048E-03
 -0.456022E-03 -0.456012E-03 -0.455974E-03 -0.455829E-03 -0.456050E-03 -0.456333E-03
 -0.456099E-03 -0.455979E-03 -0.456081E-03 -0.456104E-03 -0.456032E-03 -0.455952E-03
 -0.456191E-03 -0.456324E-03 -0.456179E-03 -0.456268E-03 -0.456407E-03 -0.456268E-03
 -0.456179E-03 -0.456324E-03 -0.456191E-03 -0.455952E-03 -0.456032E-03 -0.456104E-03
 -0.456081E-03 -0.455979E-03 -0.456099E-03 -0.456333E-03 -0.456050E-03 -0.455829E-03
 -0.455974E-03 -0.456012E-03 -0.456022E-03 -0.456048E-03 -0.456035E-03 -0.456062E-03
 -0.456095E-03 -0.456093E-03 -0.455973E-03 -0.455955E-03 -0.455925E-03 -0.456002E-03
 -0.456204E-03 -0.455995E-03 -0.455885E-03 -0.456022E-03 -0.456049E-03 -0.456099E-03
 -0.456069E-03 -0.456157E-03 -0.456327E-03 -0.456268E-03 -0.456258E-03 -0.456330E-03
 -0.456258E-03 -0.456268E-03 -0.456327E-03 -0.456157E-03 -0.456069E-03 -0.456099E-03
 -0.456049E-03 -0.456022E-03 -0.455885E-03 -0.455995E-03 -0.456204E-03 -0.456002E-03
 -0.455925E-03 -0.455955E-03 -0.455973E-03 -0.456093E-03 -0.456095E-03 -0.456062E-03
 -0.455939E-03 -0.455979E-03 -0.456068E-03 -0.456085E-03 -0.456213E-03 -0.456181E-03
 -0.455991E-03 -0.456106E-03 -0.456005E-03 -0.455812E-03 -0.455813E-03 -0.455889E-03
 -0.456091E-03 -0.456082E-03 -0.456109E-03 -0.456377E-03 -0.456407E-03 -0.456330E-03
 -0.456348E-03 -0.456330E-03 -0.456407E-03 -0.456377E-03 -0.456109E-03 -0.456082E-03
 -0.456091E-03 -0.455889E-03 -0.455813E-03 -0.455812E-03 -0.456005E-03 -0.456106E-03
 -0.455991E-03 -0.456181E-03 -0.456213E-03 -0.456085E-03 -0.456068E-03 -0.455979E-03
 -0.455939E-03 -0.456062E-03 -0.456095E-03 -0.456093E-03 -0.455973E-03 -0.455955E-03
 -0.455925E-03 -0.456002E-03 -0.456204E-03 -0.455995E-03 -0.455885E-03 -0.456022E-03
 -0.456049E-03 -0.456099E-03 -0.456069E-03 -0.456157E-03 -0.456327E-03 -0.456268E-03
 -0.456258E-03 -0.456330E-03 -0.456258E-03 -0.456268E-03 -0.456327E-03 -0.456157E-03
 -0.456069E-03 -0.456099E-03 -0.456049E-03 -0.456022E-03 -0.455885E-03 -0.455995E-03
 -0.456204E-03 -0.456002E-03 -0.455925E-03 -0.455955E-03 -0.455973E-03 -0.456093E-03
 -0.456095E-03 -0.456062E-03 -0.456035E-03 -0.456048E-03 -0.456022E-03 -0.456012E-03
 -0.455974E-03 -0.455829E-03 -0.456050E-03 -0.456333E-03 -0.456099E-03 -0.455979E-03
 -0.456081E-03 -0.456104E-03 -0.456032E-03 -0.455952E-03 -0.456191E-03 -0.456324E-03
 -0.456179E-03 -0.456268E-03 -0.456407E-03 -0.456268E-03 -0.456179E-03 -0.456324E-03
 -0.456191E-03 -0.455952E-03 -0.456032E-03 -0.456104E-03 -0.456081E-03 -0.455979E-03
 -0.456099E-03 -0.456333E-03 -0.456050E-03 -0.455829E-03 -0.455974E-03 -0.456012E-03
 -0.456022E-03 -0.456048E-03 -0.456035E-03 -0.455894E-03 -0.455910E-03 -0.455993E-03
 -0.456199E-03 -0.456200E-03 -0.455910E-03 -0.455894E-03 -0.456105E-03 -0.456146E-03
 -0.456019E-03 -0.455944E-03 -0.456133E-03 -0.456148E-03 -0.455996E-03 -0.456278E-03
 -0.456463E-03 -0.456324E-03 -0.456327E-03 -0.456377E-03 -0.456327E-03 -0.456324E-03
 -0.456463E-03 -0.456278E-03 -0.455996E-03 -0.456148E-03 -0.456133E-03 -0.455944E-03
 -0.456019E-03 -0.456146E-03 -0.456105E-03 -0.455894E-03 -0.455910E-03 -0.456200E-03
 -0.456199E-03 -0.455993E-03 -0.455910E-03 -0.455894E-03 -0.455956E-03 -0.456006E-03
 -0.456107E-03 -0.456141E-03 -0.456024E-03 -0.455977E-03 -0.456023E-03 -0.456034E-03
 -0.456076E-03 -0.456005E-03 -0.455989E-03 -0.456202E-03 -0.456206E-03 -0.456084E-03
 -0.456235E-03 -0.456278E-03 -0.456191E-03 -0.456157E-03 -0.456109E-03 -0.456157E-03
 -0.456191E-03 -0.456278E-03 -0.456235E-03 -0.456084E-03 -0.456206E-03 -0.456202E-03
 -0.455989E-03 -0.456005E-03 -0.456076E-03 -0.456034E-03 -0.456023E-03 -0.455977E-03
 -0.456024E-03 -0.456141E-03 -0.456107E-03 -0.456006E-03 -0.455956E-03 -0.455999E-03
 -0.456021E-03 -0.456071E-03 -0.456037E-03 -0.455936E-03 -0.456077E-03 -0.456286E-03
 -0.456245E-03 -0.456072E-03 -0.456010E-03 -0.456123E-03 -0.456077E-03 -0.455882E-03
 -0.455915E-03 -0.456084E-03 -0.455996E-03 -0.455952E-03 -0.456069E-03 -0.456082E-03
 -0.456069E-03 -0.455952E-03 -0.455996E-03 -0.456084E-03 -0.455915E-03 -0.455882E-03
 -0.456077E-03 -0.456123E-03 -0.456010E-03 -0.456072E-03 -0.456245E-03 -0.456286E-03
 -0.456077E-03 -0.455936E-03 -0.456037E-03 -0.456071E-03 -0.456021E-03 -0.455999E-03
 -0.456019E-03 -0.456033E-03 -0.456153E-03 -0.456270E-03 -0.456133E-03 -0.455949E-03
 -0.456026E-03 -0.456176E-03 -0.456033E-03 -0.456008E-03 -0.456193E-03 -0.455987E-03
 -0.455719E-03 -0.455882E-03 -0.456206E-03 -0.456148E-03 -0.456032E-03 -0.456099E-03
 -0.456091E-03 -0.456099E-03 -0.456032E-03 -0.456148E-03 -0.456206E-03 -0.455882E-03
 -0.455719E-03 -0.455987E-03 -0.456193E-03 -0.456008E-03 -0.456033E-03 -0.456176E-03
 -0.456026E-03 -0.455949E-03 -0.456133E-03 -0.456270E-03 -0.456153E-03 -0.456033E-03
 -0.456019E-03 -0.455951E-03 -0.456036E-03 -0.456311E-03 -0.456457E-03 -0.456215E-03
 -0.455858E-03 -0.455811E-03 -0.456043E-03 -0.456002E-03 -0.456025E-03 -0.456223E-03
 -0.456096E-03 -0.455987E-03 -0.456077E-03 -0.456202E-03 -0.456133E-03 -0.456104E-03
 -0.456049E-03 -0.455889E-03 -0.456049E-03 -0.456104E-03 -0.456133E-03 -0.456202E-03
 -0.456077E-03 -0.455987E-03 -0.456096E-03 -0.456223E-03 -0.456025E-03 -0.456002E-03
 -0.456043E-03 -0.455811E-03 -0.455858E-03 -0.456215E-03 -0.456457E-03 -0.456311E-03
 -0.456036E-03 -0.455951E-03 -0.456050E-03 -0.456063E-03 -0.456227E-03 -0.456262E-03
 -0.456085E-03 -0.455961E-03 -0.455877E-03 -0.455957E-03 -0.456008E-03 -0.456141E-03
 -0.456305E-03 -0.456223E-03 -0.456193E-03 -0.456123E-03 -0.455989E-03 -0.455944E-03
 -0.456081E-03 -0.456022E-03 -0.455813E-03 -0.456022E-03 -0.456081E-03 -0.455944E-03
 -0.455989E-03 -0.456123E-03 -0.456193E-03 -0.456223E-03 -0.456305E-03 -0.456141E-03
 -0.456008E-03 -0.455957E-03 -0.455877E-03 -0.455961E-03 -0.456085E-03 -0.456262E-03
 -0.456227E-03 -0.456063E-03 -0.456050E-03 -0.456135E-03 -0.456030E-03 -0.456037E-03
 -0.456126E-03 -0.456179E-03 -0.456259E-03 -0.456115E-03 -0.455971E-03 -0.455995E-03
 -0.456107E-03 -0.456141E-03 -0.456025E-03 -0.456008E-03 -0.456010E-03 -0.456005E-03
 -0.456019E-03 -0.455979E-03 -0.455885E-03 -0.455812E-03 -0.455885E-03 -0.455979E-03
 -0.456019E-03 -0.456005E-03 -0.456010E-03 -0.456008E-03 -0.456025E-03 -0.456141E-03
 -0.456107E-03 -0.455995E-03 -0.455971E-03 -0.456115E-03 -0.456259E-03 -0.456179E-03
 -0.456126E-03 -0.456037E-03 -0.456030E-03 -0.456135E-03 -0.456037E-03 -0.455999E-03
 -0.456005E-03 -0.456121E-03 -0.456257E-03 -0.456287E-03 -0.456100E-03 -0.455898E-03
 -0.455917E-03 -0.455995E-03 -0.456008E-03 -0.456002E-03 -0.456033E-03 -0.456072E-03
 -0.456076E-03 -0.456146E-03 -0.456099E-03 -0.455995E-03 -0.456005E-03 -0.455995E-03
 -0.456099E-03 -0.456146E-03 -0.456076E-03 -0.456072E-03 -0.456033E-03 -0.456002E-03
 -0.456008E-03 -0.455995E-03 -0.455917E-03 -0.455898E-03 -0.456100E-03 -0.456287E-03
 -0.456257E-03 -0.456121E-03 -0.456005E-03 -0.455999E-03 -0.456037E-03 -0.456193E-03
 -0.456223E-03 -0.456118E-03 -0.456057E-03 -0.456156E-03 -0.456117E-03 -0.455962E-03
 -0.455819E-03 -0.455898E-03 -0.455971E-03 -0.455957E-03 -0.456043E-03 -0.456176E-03
 -0.456245E-03 -0.456034E-03 -0.456105E-03 -0.456333E-03 -0.456204E-03 -0.456106E-03
 -0.456204E-03 -0.456333E-03 -0.456105E-03 -0.456034E-03 -0.456245E-03 -0.456176E-03
 -0.456043E-03 -0.455957E-03 -0.455971E-03 -0.455898E-03 -0.455819E-03 -0.455962E-03
 -0.456117E-03 -0.456156E-03 -0.456057E-03 -0.456118E-03 -0.456223E-03 -0.456193E-03
 -0.456228E-03 -0.456193E-03 -0.456018E-03 -0.455982E-03 -0.456099E-03 -0.456082E-03
 -0.456024E-03 -0.455962E-03 -0.456100E-03 -0.456115E-03 -0.455877E-03 -0.455811E-03
 -0.456026E-03 -0.456286E-03 -0.456023E-03 -0.455894E-03 -0.456050E-03 -0.456002E-03
 -0.455991E-03 -0.456002E-03 -0.456050E-03 -0.455894E-03 -0.456023E-03 -0.456286E-03
 -0.456026E-03 -0.455811E-03 -0.455877E-03 -0.456115E-03 -0.456100E-03 -0.455962E-03
 -0.456024E-03 -0.456082E-03 -0.456099E-03 -0.455982E-03 -0.456018E-03 -0.456193E-03
 -0.456228E-03 -0.456340E-03 -0.456191E-03 -0.456001E-03 -0.455940E-03 -0.455911E-03
 -0.455979E-03 -0.456082E-03 -0.456117E-03 -0.456287E-03 -0.456259E-03 -0.455961E-03
 -0.455858E-03 -0.455949E-03 -0.456077E-03 -0.455977E-03 -0.455910E-03 -0.455829E-03
 -0.455925E-03 -0.456181E-03 -0.455925E-03 -0.455829E-03 -0.455910E-03 -0.455977E-03
 -0.456077E-03 -0.455949E-03 -0.455858E-03 -0.455961E-03 -0.456259E-03 -0.456287E-03
 -0.456117E-03 -0.456082E-03 -0.455979E-03 -0.455911E-03 -0.455940E-03 -0.456001E-03
 -0.456191E-03 -0.456340E-03 -0.456244E-03 -0.456159E-03 -0.456142E-03 -0.455964E-03
 -0.455730E-03 -0.455911E-03 -0.456099E-03 -0.456156E-03 -0.456257E-03 -0.456179E-03
 -0.456085E-03 -0.456215E-03 -0.456133E-03 -0.455936E-03 -0.456024E-03 -0.456200E-03
 -0.455974E-03 -0.455955E-03 -0.456213E-03 -0.455955E-03 -0.455974E-03 -0.456200E-03
 -0.456024E-03 -0.455936E-03 -0.456133E-03 -0.456215E-03 -0.456085E-03 -0.456179E-03
 -0.456257E-03 -0.456156E-03 -0.456099E-03 -0.455911E-03 -0.455730E-03 -0.455964E-03
 -0.456142E-03 -0.456159E-03 -0.456244E-03 -0.455787E-03 -0.455871E-03 -0.456221E-03
 -0.456249E-03 -0.455964E-03 -0.455940E-03 -0.455982E-03 -0.456057E-03 -0.456121E-03
 -0.456126E-03 -0.456262E-03 -0.456457E-03 -0.456270E-03 -0.456037E-03 -0.456141E-03
 -0.456199E-03 -0.456012E-03 -0.455973E-03 -0.456085E-03 -0.455973E-03 -0.456012E-03
 -0.456199E-03 -0.456141E-03 -0.456037E-03 -0.456270E-03 -0.456457E-03 -0.456262E-03
 -0.456126E-03 -0.456121E-03 -0.456057E-03 -0.455982E-03 -0.455940E-03 -0.455964E-03
 -0.456249E-03 -0.456221E-03 -0.455871E-03 -0.455787E-03 -0.455933E-03 -0.455942E-03
 -0.456112E-03 -0.456221E-03 -0.456142E-03 -0.456001E-03 -0.456018E-03 -0.456118E-03
 -0.456005E-03 -0.456037E-03 -0.456227E-03 -0.456311E-03 -0.456153E-03 -0.456071E-03
 -0.456107E-03 -0.455993E-03 -0.456022E-03 -0.456093E-03 -0.456068E-03 -0.456093E-03
 -0.456022E-03 -0.455993E-03 -0.456107E-03 -0.456071E-03 -0.456153E-03 -0.456311E-03
 -0.456227E-03 -0.456037E-03 -0.456005E-03 -0.456118E-03 -0.456018E-03 -0.456001E-03
 -0.456142E-03 -0.456221E-03 -0.456112E-03 -0.455942E-03 -0.455933E-03 -0.456114E-03
 -0.456110E-03 -0.455942E-03 -0.455871E-03 -0.456159E-03 -0.456191E-03 -0.456193E-03
 -0.456223E-03 -0.455999E-03 -0.456030E-03 -0.456063E-03 -0.456036E-03 -0.456033E-03
 -0.456021E-03 -0.456006E-03 -0.455910E-03 -0.456048E-03 -0.456095E-03 -0.455979E-03
 -0.456095E-03 -0.456048E-03 -0.455910E-03 -0.456006E-03 -0.456021E-03 -0.456033E-03
 -0.456036E-03 -0.456063E-03 -0.456030E-03 -0.455999E-03 -0.456223E-03 -0.456193E-03
 -0.456191E-03 -0.456159E-03 -0.455871E-03 -0.455942E-03 -0.456110E-03 -0.456114E-03
 -0.456004E-03 -0.456114E-03 -0.455933E-03 -0.455787E-03 -0.456244E-03 -0.456340E-03
 -0.456228E-03 -0.456193E-03 -0.456037E-03 -0.456135E-03 -0.456050E-03 -0.455951E-03
 -0.456019E-03 -0.455999E-03 -0.455956E-03 -0.455894E-03 -0.456035E-03 -0.456062E-03
 -0.455939E-03 -0.456062E-03 -0.456035E-03 -0.455894E-03 -0.455956E-03 -0.455999E-03
 -0.456019E-03 -0.455951E-03 -0.456050E-03 -0.456135E-03 -0.456037E-03 -0.456193E-03
 -0.456228E-03 -0.456340E-03 -0.456244E-03 -0.455787E-03 -0.455933E-03 -0.456114E-03
 -0.456004E-03 -0.455985E-03 -0.456120E-03 -0.456412E-03 -0.456525E-03 -0.456191E-03
 -0.455932E-03 -0.456091E-03 -0.456003E-03 -0.455865E-03 -0.456140E-03 -0.456430E-03
 -0.456451E-03 -0.456353E-03 -0.456249E-03 -0.456133E-03 -0.456297E-03 -0.456225E-03
 -0.456015E-03 -0.456081E-03 -0.456015E-03 -0.456225E-03 -0.456297E-03 -0.456133E-03
 -0.456249E-03 -0.456353E-03 -0.456451E-03 -0.456430E-03 -0.456140E-03 -0.455865E-03
 -0.456003E-03 -0.456091E-03 -0.455932E-03 -0.456191E-03 -0.456525E-03 -0.456412E-03
 -0.456120E-03 -0.455985E-03 -0.456120E-03 -0.456162E-03 -0.456261E-03 -0.456273E-03
 -0.456058E-03 -0.455907E-03 -0.456057E-03 -0.456136E-03 -0.456187E-03 -0.456335E-03
 -0.456403E-03 -0.456374E-03 -0.456300E-03 -0.456279E-03 -0.456154E-03 -0.456129E-03
 -0.456091E-03 -0.455975E-03 -0.456000E-03 -0.455975E-03 -0.456091E-03 -0.456129E-03
 -0.456154E-03 -0.456279E-03 -0.456300E-03 -0.456374E-03 -0.456403E-03 -0.456335E-03
 -0.456187E-03 -0.456136E-03 -0.456057E-03 -0.455907E-03 -0.456058E-03 -0.456273E-03
 -0.456261E-03 -0.456162E-03 -0.456120E-03 -0.456412E-03 -0.456261E-03 -0.456070E-03
 -0.456058E-03 -0.456126E-03 -0.456085E-03 -0.456002E-03 -0.456131E-03 -0.456382E-03
 -0.456340E-03 -0.456160E-03 -0.456153E-03 -0.456088E-03 -0.456100E-03 -0.456014E-03
 -0.455867E-03 -0.455977E-03 -0.456030E-03 -0.455999E-03 -0.456030E-03 -0.455977E-03
 -0.455867E-03 -0.456014E-03 -0.456100E-03 -0.456088E-03 -0.456153E-03 -0.456160E-03
 -0.456340E-03 -0.456382E-03 -0.456131E-03 -0.456002E-03 -0.456085E-03 -0.456126E-03
 -0.456058E-03 -0.456070E-03 -0.456261E-03 -0.456412E-03 -0.456525E-03 -0.456273E-03
 -0.456058E-03 -0.456117E-03 -0.456221E-03 -0.456217E-03 -0.455996E-03 -0.455962E-03
 -0.456160E-03 -0.456055E-03 -0.455863E-03 -0.455979E-03 -0.456034E-03 -0.456041E-03
 -0.455993E-03 -0.455944E-03 -0.456054E-03 -0.456051E-03 -0.455996E-03 -0.456051E-03
 -0.456054E-03 -0.455944E-03 -0.455993E-03 -0.456041E-03 -0.456034E-03 -0.455979E-03
 -0.455863E-03 -0.456055E-03 -0.456160E-03 -0.455962E-03 -0.455996E-03 -0.456217E-03
 -0.456221E-03 -0.456117E-03 -0.456058E-03 -0.456273E-03 -0.456525E-03 -0.456191E-03
 -0.456058E-03 -0.456126E-03 -0.456221E-03 -0.456104E-03 -0.456157E-03 -0.456063E-03
 -0.455890E-03 -0.456011E-03 -0.456076E-03 -0.456017E-03 -0.456089E-03 -0.456214E-03
 -0.456312E-03 -0.456231E-03 -0.456195E-03 -0.456179E-03 -0.456105E-03 -0.456128E-03
 -0.456105E-03 -0.456179E-03 -0.456195E-03 -0.456231E-03 -0.456312E-03 -0.456214E-03
 -0.456089E-03 -0.456017E-03 -0.456076E-03 -0.456011E-03 -0.455890E-03 -0.456063E-03
 -0.456157E-03 -0.456104E-03 -0.456221E-03 -0.456126E-03 -0.456058E-03 -0.456191E-03
 -0.455932E-03 -0.455907E-03 -0.456085E-03 -0.456217E-03 -0.456157E-03 -0.456268E-03
 -0.456156E-03 -0.455803E-03 -0.455774E-03 -0.456000E-03 -0.456274E-03 -0.456309E-03
 -0.456194E-03 -0.456300E-03 -0.456247E-03 -0.456220E-03 -0.456265E-03 -0.456244E-03
 -0.456298E-03 -0.456244E-03 -0.456265E-03 -0.456220E-03 -0.456247E-03 -0.456300E-03
 -0.456194E-03 -0.456309E-03 -0.456274E-03 -0.456000E-03 -0.455774E-03 -0.455803E-03
 -0.456156E-03 -0.456268E-03 -0.456157E-03 -0.456217E-03 -0.456085E-03 -0.455907E-03
 -0.455932E-03 -0.456091E-03 -0.456057E-03 -0.456002E-03 -0.455996E-03 -0.456063E-03
 -0.456156E-03 -0.456159E-03 -0.456025E-03 -0.455883E-03 -0.455953E-03 -0.456312E-03
 -0.456345E-03 -0.456040E-03 -0.456111E-03 -0.456163E-03 -0.456140E-03 -0.456225E-03
 -0.456139E-03 -0.456061E-03 -0.456139E-03 -0.456225E-03 -0.456140E-03 -0.456163E-03
 -0.456111E-03 -0.456040E-03 -0.456345E-03 -0.456312E-03 -0.455953E-03 -0.455883E-03
 -0.456025E-03 -0.456159E-03 -0.456156E-03 -0.456063E-03 -0.455996E-03 -0.456002E-03
 -0.456057E-03 -0.456091E-03 -0.456003E-03 -0.456136E-03 -0.456131E-03 -0.455962E-03
 -0.455890E-03 -0.455803E-03 -0.456025E-03 -0.456339E-03 -0.456238E-03 -0.456163E-03
 -0.456301E-03 -0.456243E-03 -0.456057E-03 -0.456118E-03 -0.456195E-03 -0.456057E-03
 -0.455980E-03 -0.455945E-03 -0.455894E-03 -0.455945E-03 -0.455980E-03 -0.456057E-03
 -0.456195E-03 -0.456118E-03 -0.456057E-03 -0.456243E-03 -0.456301E-03 -0.456163E-03
 -0.456238E-03 -0.456339E-03 -0.456025E-03 -0.455803E-03 -0.455890E-03 -0.455962E-03
 -0.456131E-03 -0.456136E-03 -0.456003E-03 -0.455865E-03 -0.456187E-03 -0.456382E-03
 -0.456160E-03 -0.456011E-03 -0.455774E-03 -0.455883E-03 -0.456238E-03 -0.456099E-03
 -0.456036E-03 -0.456117E-03 -0.456118E-03 -0.456149E-03 -0.456106E-03 -0.456231E-03
 -0.456153E-03 -0.455967E-03 -0.456045E-03 -0.456088E-03 -0.456045E-03 -0.455967E-03
 -0.456153E-03 -0.456231E-03 -0.456106E-03 -0.456149E-03 -0.456118E-03 -0.456117E-03
 -0.456036E-03 -0.456099E-03 -0.456238E-03 -0.455883E-03 -0.455774E-03 -0.456011E-03
 -0.456160E-03 -0.456382E-03 -0.456187E-03 -0.455865E-03 -0.456140E-03 -0.456335E-03
 -0.456340E-03 -0.456055E-03 -0.456076E-03 -0.456000E-03 -0.455953E-03 -0.456163E-03
 -0.456036E-03 -0.455985E-03 -0.455985E-03 -0.456014E-03 -0.456169E-03 -0.456045E-03
 -0.456242E-03 -0.456351E-03 -0.456277E-03 -0.456366E-03 -0.456333E-03 -0.456366E-03
 -0.456277E-03 -0.456351E-03 -0.456242E-03 -0.456045E-03 -0.456169E-03 -0.456014E-03
 -0.455985E-03 -0.455985E-03 -0.456036E-03 -0.456163E-03 -0.455953E-03 -0.456000E-03
 -0.456076E-03 -0.456055E-03 -0.456340E-03 -0.456335E-03 -0.456140E-03 -0.456430E-03
 -0.456403E-03 -0.456160E-03 -0.455863E-03 -0.456017E-03 -0.456274E-03 -0.456312E-03
 -0.456301E-03 -0.456117E-03 -0.455985E-03 -0.455738E-03 -0.455715E-03 -0.456047E-03
 -0.456005E-03 -0.456174E-03 -0.456229E-03 -0.456170E-03 -0.456321E-03 -0.456295E-03
 -0.456321E-03 -0.456170E-03 -0.456229E-03 -0.456174E-03 -0.456005E-03 -0.456047E-03
 -0.455715E-03 -0.455738E-03 -0.455985E-03 -0.456117E-03 -0.456301E-03 -0.456312E-03
 -0.456274E-03 -0.456017E-03 -0.455863E-03 -0.456160E-03 -0.456403E-03 -0.456430E-03
 -0.456451E-03 -0.456374E-03 -0.456153E-03 -0.455979E-03 -0.456089E-03 -0.456309E-03
 -0.456345E-03 -0.456243E-03 -0.456118E-03 -0.456014E-03 -0.455715E-03 -0.455764E-03
 -0.456190E-03 -0.456098E-03 -0.456192E-03 -0.456278E-03 -0.456126E-03 -0.456286E-03
 -0.456384E-03 -0.456286E-03 -0.456126E-03 -0.456278E-03 -0.456192E-03 -0.456098E-03
 -0.456190E-03 -0.455764E-03 -0.455715E-03 -0.456014E-03 -0.456118E-03 -0.456243E-03
 -0.456345E-03 -0.456309E-03 -0.456089E-03 -0.455979E-03 -0.456153E-03 -0.456374E-03
 -0.456451E-03 -0.456353E-03 -0.456300E-03 -0.456088E-03 -0.456034E-03 -0.456214E-03
 -0.456194E-03 -0.456040E-03 -0.456057E-03 -0.456149E-03 -0.456169E-03 -0.456047E-03
 -0.456190E-03 -0.456574E-03 -0.456365E-03 -0.456305E-03 -0.456529E-03 -0.456418E-03
 -0.456447E-03 -0.456551E-03 -0.456447E-03 -0.456418E-03 -0.456529E-03 -0.456305E-03
 -0.456365E-03 -0.456574E-03 -0.456190E-03 -0.456047E-03 -0.456169E-03 -0.456149E-03
 -0.456057E-03 -0.456040E-03 -0.456194E-03 -0.456214E-03 -0.456034E-03 -0.456088E-03
 -0.456300E-03 -0.456353E-03 -0.456249E-03 -0.456279E-03 -0.456100E-03 -0.456041E-03
 -0.456312E-03 -0.456300E-03 -0.456111E-03 -0.456118E-03 -0.456106E-03 -0.456045E-03
 -0.456005E-03 -0.456098E-03 -0.456365E-03 -0.456249E-03 -0.456199E-03 -0.456456E-03
 -0.456427E-03 -0.456380E-03 -0.456430E-03 -0.456380E-03 -0.456427E-03 -0.456456E-03
 -0.456199E-03 -0.456249E-03 -0.456365E-03 -0.456098E-03 -0.456005E-03 -0.456045E-03
 -0.456106E-03 -0.456118E-03 -0.456111E-03 -0.456300E-03 -0.456312E-03 -0.456041E-03
 -0.456100E-03 -0.456279E-03 -0.456249E-03 -0.456133E-03 -0.456154E-03 -0.456014E-03
 -0.455993E-03 -0.456231E-03 -0.456247E-03 -0.456163E-03 -0.456195E-03 -0.456231E-03
 -0.456242E-03 -0.456174E-03 -0.456192E-03 -0.456305E-03 -0.456199E-03 -0.456238E-03
 -0.456379E-03 -0.456326E-03 -0.456365E-03 -0.456434E-03 -0.456365E-03 -0.456326E-03
 -0.456379E-03 -0.456238E-03 -0.456199E-03 -0.456305E-03 -0.456192E-03 -0.456174E-03
 -0.456242E-03 -0.456231E-03 -0.456195E-03 -0.456163E-03 -0.456247E-03 -0.456231E-03
 -0.455993E-03 -0.456014E-03 -0.456154E-03 -0.456133E-03 -0.456297E-03 -0.456129E-03
 -0.455867E-03 -0.455944E-03 -0.456195E-03 -0.456220E-03 -0.456140E-03 -0.456057E-03
 -0.456153E-03 -0.456351E-03 -0.456229E-03 -0.456278E-03 -0.456529E-03 -0.456456E-03
 -0.456379E-03 -0.456312E-03 -0.456318E-03 -0.456403E-03 -0.456383E-03 -0.456403E-03
 -0.456318E-03 -0.456312E-03 -0.456379E-03 -0.456456E-03 -0.456529E-03 -0.456278E-03
 -0.456229E-03 -0.456351E-03 -0.456153E-03 -0.456057E-03 -0.456140E-03 -0.456220E-03
 -0.456195E-03 -0.455944E-03 -0.455867E-03 -0.456129E-03 -0.456297E-03 -0.456225E-03
 -0.456091E-03 -0.455977E-03 -0.456054E-03 -0.456179E-03 -0.456265E-03 -0.456225E-03
 -0.455980E-03 -0.455967E-03 -0.456277E-03 -0.456170E-03 -0.456126E-03 -0.456418E-03
 -0.456427E-03 -0.456326E-03 -0.456318E-03 -0.456495E-03 -0.456441E-03 -0.456219E-03
 -0.456441E-03 -0.456495E-03 -0.456318E-03 -0.456326E-03 -0.456427E-03 -0.456418E-03
 -0.456126E-03 -0.456170E-03 -0.456277E-03 -0.455967E-03 -0.455980E-03 -0.456225E-03
 -0.456265E-03 -0.456179E-03 -0.456054E-03 -0.455977E-03 -0.456091E-03 -0.456225E-03
 -0.456015E-03 -0.455975E-03 -0.456030E-03 -0.456051E-03 -0.456105E-03 -0.456244E-03
 -0.456139E-03 -0.455945E-03 -0.456045E-03 -0.456366E-03 -0.456321E-03 -0.456286E-03
 -0.456447E-03 -0.456380E-03 -0.456365E-03 -0.456403E-03 -0.456441E-03 -0.456416E-03
 -0.456329E-03 -0.456416E-03 -0.456441E-03 -0.456403E-03 -0.456365E-03 -0.456380E-03
 -0.456447E-03 -0.456286E-03 -0.456321E-03 -0.456366E-03 -0.456045E-03 -0.455945E-03
 -0.456139E-03 -0.456244E-03 -0.456105E-03 -0.456051E-03 -0.456030E-03 -0.455975E-03
 -0.456015E-03 -0.456081E-03 -0.456000E-03 -0.455999E-03 -0.455996E-03 -0.456128E-03
 -0.456298E-03 -0.456061E-03 -0.455894E-03 -0.456088E-03 -0.456333E-03 -0.456295E-03
 -0.456384E-03 -0.456551E-03 -0.456430E-03 -0.456434E-03 -0.456383E-03 -0.456219E-03
 -0.456329E-03 -0.456462E-03 -0.456329E-03 -0.456219E-03 -0.456383E-03 -0.456434E-03
 -0.456430E-03 -0.456551E-03 -0.456384E-03 -0.456295E-03 -0.456333E-03 -0.456088E-03
 -0.455894E-03 -0.456061E-03 -0.456298E-03 -0.456128E-03 -0.455996E-03 -0.455999E-03
 -0.456000E-03 -0.456081E-03 -0.456015E-03 -0.455975E-03 -0.456030E-03 -0.456051E-03