 ANIMSTEPS   7
 CRYSTAL 
 PRIMVEC 
  6.3501265308  0.0000000000  0.0000000000
  0.0000000000  3.1750632654  0.0000000000
  0.0000000000  0.0000000000  3.1750632654
 PRIMCOORD   1
    3  1
 H   -2.7910280766    0.0000000000    0.0000000000    0.0000313676    0.0000000000    0.0000000000
 H    0.0000000000    0.0000000000    0.0000000000    0.0000000000    0.0000000000    0.0000000000
 H    0.7888640632    0.0000000000    0.0000000000   -0.0004528237    0.0000000000    0.0000000000
 PRIMCOORD   2
    3  1
 H   -2.0908723766    0.0000000000    0.0000000000   -0.0037411418    0.0000000000    0.0000000000
 H    0.0000000000    0.0000000000    0.0000000000    0.0000000000    0.0000000000    0.0000000000
 H    0.7933616828    0.0000000000    0.0000000000   -0.0013556194    0.0000000000    0.0000000000
 PRIMCOORD   3
    3  1
 H   -1.4767973223    0.0000000000    0.0000000000   -0.0108607764    0.0000000000    0.0000000000
 H    0.0000000000    0.0000000000    0.0000000000    0.0000000000    0.0000000000    0.0000000000
 H    0.8168489127    0.0000000000    0.0000000000   -0.0006400464    0.0000000000    0.0000000000
 PRIMCOORD   4
    3  1
 H   -1.0041739096    0.0000000000    0.0000000000    0.0023743312    0.0000000000    0.0000000000
 H    0.0000000000    0.0000000000    0.0000000000    0.0000000000    0.0000000000    0.0000000000
 H    1.0041844521    0.0000000000    0.0000000000   -0.0023743312    0.0000000000    0.0000000000
 PRIMCOORD   5
    3  1
 H   -0.8168468633    0.0000000000    0.0000000000    0.0006392927    0.0000000000    0.0000000000
 H    0.0000000000    0.0000000000    0.0000000000   -0.0000000000    0.0000000000    0.0000000000
 H    1.4768085658    0.0000000000    0.0000000000    0.0108608099    0.0000000000    0.0000000000
 PRIMCOORD   6
    3  1
 H   -0.7933614831    0.0000000000    0.0000000000    0.0013555259    0.0000000000    0.0000000000
 H    0.0000000000    0.0000000000    0.0000000000   -0.0000000000    0.0000000000    0.0000000000
 H    2.0908812268    0.0000000000    0.0000000000    0.0037410464    0.0000000000    0.0000000000
 PRIMCOORD   7
    3  1
 H   -0.7888641151    0.0000000000    0.0000000000    0.0004465976    0.0000000000    0.0000000000
 H    0.0000000000    0.0000000000    0.0000000000   -0.0000000000    0.0000000000    0.0000000000
 H    2.7910312925    0.0000000000    0.0000000000   -0.0000283988    0.0000000000    0.0000000000
