 ANIMSTEPS   7
 CRYSTAL 
 PRIMVEC 
  6.3501265308  0.0000000000  0.0000000000
  0.0000000000  3.1750632654  0.0000000000
  0.0000000000  0.0000000000  3.1750632654
 PRIMCOORD   1
    3  1
 H   -2.7910280766    0.0000000000    0.0000000000    0.0000313676    0.0000000000    0.0000000000
 H    0.0000000000    0.0000000000    0.0000000000    0.0000000000    0.0000000000    0.0000000000
 H    0.7888640632    0.0000000000    0.0000000000   -0.0004528237    0.0000000000    0.0000000000
 PRIMCOORD   2
    3  1
 H   -2.0846645815    0.0000000000    0.0000000000   -0.0038151146    0.0000000000    0.0000000000
 H    0.0000000000    0.0000000000    0.0000000000    0.0000000000    0.0000000000    0.0000000000
 H    0.7930481872    0.0000000000    0.0000000000   -0.0009990795    0.0000000000    0.0000000000
 PRIMCOORD   3
    3  1
 H   -1.4735294075    0.0000000000    0.0000000000   -0.0107266772    0.0000000000    0.0000000000
 H    0.0000000000    0.0000000000    0.0000000000    0.0000000000    0.0000000000    0.0000000000
 H    0.8190983746    0.0000000000    0.0000000000   -0.0021759321    0.0000000000    0.0000000000
 PRIMCOORD   4
    3  1
 H   -0.9956527061    0.0000000000    0.0000000000   -0.0011289960    0.0000000000    0.0000000000
 H    0.0000000000    0.0000000000    0.0000000000    0.0000000000    0.0000000000    0.0000000000
 H    0.9956547719    0.0000000000    0.0000000000    0.0011289960    0.0000000000    0.0000000000
 PRIMCOORD   5
    3  1
 H   -0.8190979552    0.0000000000    0.0000000000    0.0021758397    0.0000000000    0.0000000000
 H    0.0000000000    0.0000000000    0.0000000000   -0.0000000000    0.0000000000    0.0000000000
 H    1.4735323732    0.0000000000    0.0000000000    0.0107266784    0.0000000000    0.0000000000
 PRIMCOORD   6
    3  1
 H   -0.7930481727    0.0000000000    0.0000000000    0.0009991027    0.0000000000    0.0000000000
 H    0.0000000000    0.0000000000    0.0000000000   -0.0000000000    0.0000000000    0.0000000000
 H    2.0846678044    0.0000000000    0.0000000000    0.0038150798    0.0000000000    0.0000000000
 PRIMCOORD   7
    3  1
 H   -0.7888641151    0.0000000000    0.0000000000    0.0004465976    0.0000000000    0.0000000000
 H    0.0000000000    0.0000000000    0.0000000000   -0.0000000000    0.0000000000    0.0000000000
 H    2.7910312925    0.0000000000    0.0000000000   -0.0000283988    0.0000000000    0.0000000000
