
     Program NEB v.6.7MaX starts on 26Apr2021 at 19: 9:33 

     This program is part of the open-source Quantum ESPRESSO suite
     for quantum simulation of materials; please cite
         "P. Giannozzi et al., J. Phys.:Condens. Matter 21 395502 (2009);
         "P. Giannozzi et al., J. Phys.:Condens. Matter 29 465901 (2017);
          URL http://www.quantum-espresso.org", 
     in publications or presentations arising from this work. More details at
     http://www.quantum-espresso.org/quote

     Parallel version (MPI), running on     1 processors

     MPI processes distributed on     1 nodes

     parsing_file_name: neb.H2+H.in
     Reading input from pw_1.in
     file H.pbe-rrkjus.UPF: wavefunction(s)  1S renormalized
     Reading input from pw_2.in
     file H.pbe-rrkjus.UPF: wavefunction(s)  1S renormalized

     initial path length           =  5.3507 bohr
     initial inter-image distance  =  0.8918 bohr

     string_method                 =    neb
     restart_mode                  =    from_scratch
     opt_scheme                    =    broyden
     num_of_images                 =    7
     nstep_path                    =    100
     CI_scheme                     =    auto
     first_last_opt                =    F
     use_freezing                  =    F
     ds                            =    1.0000 a.u.
     k_max                         =    0.3000 a.u.
     k_min                         =    0.2000 a.u.
     suggested k_max               =    0.6169 a.u.
     suggested k_min               =    0.4112 a.u.
     path_thr                      =    0.1000 eV / A

     ------------------------------ iteration   1 ------------------------------

     tcpu =      0.1    self-consistency for image   1
     tcpu =      0.7    self-consistency for image   2
     tcpu =      1.0    self-consistency for image   3
     tcpu =      1.3    self-consistency for image   4
     tcpu =      1.6    self-consistency for image   5
     tcpu =      1.9    self-consistency for image   6
     tcpu =      2.2    self-consistency for image   7

     activation energy (->) =   2.661713 eV
     activation energy (<-) =   2.661713 eV

     image        energy (eV)        error (eV/A)        frozen

         1        -47.0613035            0.012322            T
         2        -46.2230734            2.583538            F
         3        -44.9881902            2.510886            F
         4        -44.3995909            1.598808            F
         5        -44.9881933            2.510856            F
         6        -46.2230752            2.583547            F
         7        -47.0613035            0.012153            T

     climbing image =  4

     path length          =  5.351 bohr
     inter-image distance =  0.892 bohr

     ------------------------------ iteration   2 ------------------------------

     tcpu =      2.6    self-consistency for image   2
     tcpu =      2.9    self-consistency for image   3
     tcpu =      3.1    self-consistency for image   4
     tcpu =      3.4    self-consistency for image   5
     tcpu =      3.6    self-consistency for image   6

     activation energy (->) =   2.608772 eV
     activation energy (<-) =   2.608772 eV

     image        energy (eV)        error (eV/A)        frozen

         1        -47.0613035            0.012322            T
         2        -46.2671314            2.468798            F
         3        -45.0403085            2.445846            F
         4        -44.4525312            1.618755            F
         5        -45.0403106            2.445833            F
         6        -46.2671338            2.468797            F
         7        -47.0613035            0.012153            T

     climbing image =  4

     path length          =  5.354 bohr
     inter-image distance =  0.892 bohr

     ------------------------------ iteration   3 ------------------------------

     tcpu =      3.8    self-consistency for image   2
     tcpu =      4.1    self-consistency for image   3
     tcpu =      4.4    self-consistency for image   4
     tcpu =      4.7    self-consistency for image   5
     tcpu =      5.0    self-consistency for image   6

     activation energy (->) =   2.322341 eV
     activation energy (<-) =   2.322341 eV

     image        energy (eV)        error (eV/A)        frozen

         1        -47.0613035            0.012322            T
         2        -46.4992051            1.764283            F
         3        -45.3205515            2.129812            F
         4        -44.7389626            1.711911            F
         5        -45.3205526            2.129813            F
         6        -46.4992075            1.764278            F
         7        -47.0613035            0.012153            T

     climbing image =  4

     path length          =  5.449 bohr
     inter-image distance =  0.908 bohr

     ------------------------------ iteration   4 ------------------------------

     tcpu =      5.3    self-consistency for image   2
     tcpu =      5.6    self-consistency for image   3
     tcpu =      5.8    self-consistency for image   4
     tcpu =      6.2    self-consistency for image   5
     tcpu =      6.5    self-consistency for image   6

     activation energy (->) =   2.013284 eV
     activation energy (<-) =   2.013284 eV

     image        energy (eV)        error (eV/A)        frozen

         1        -47.0613035            0.012322            T
         2        -46.7202419            2.045896            F
         3        -45.6148078            1.803226            F
         4        -45.0480193            1.790060            F
         5        -45.6148086            1.803225            F
         6        -46.7202441            2.045896            F
         7        -47.0613035            0.012153            T

     climbing image =  4

     path length          =  5.648 bohr
     inter-image distance =  0.941 bohr

     ------------------------------ iteration   5 ------------------------------

     tcpu =      6.7    self-consistency for image   2
     tcpu =      7.0    self-consistency for image   3
     tcpu =      7.3    self-consistency for image   4
     tcpu =      7.6    self-consistency for image   5
     tcpu =      7.8    self-consistency for image   6

     activation energy (->) =   1.686582 eV
     activation energy (<-) =   1.686582 eV

     image        energy (eV)        error (eV/A)        frozen

         1        -47.0613035            0.012322            T
         2        -46.9010380            2.313263            F
         3        -45.9139374            1.844490            F
         4        -45.3747211            1.841890            F
         5        -45.9139378            1.844516            F
         6        -46.9010399            2.313265            F
         7        -47.0613035            0.012153            T

     climbing image =  4

     path length          =  5.919 bohr
     inter-image distance =  0.986 bohr

     ------------------------------ iteration   6 ------------------------------

     tcpu =      8.1    self-consistency for image   2
     tcpu =      8.4    self-consistency for image   3
     tcpu =      8.7    self-consistency for image   4
     tcpu =      9.0    self-consistency for image   5
     tcpu =      9.3    self-consistency for image   6

     activation energy (->) =   1.349285 eV
     activation energy (<-) =   1.349285 eV

     image        energy (eV)        error (eV/A)        frozen

         1        -47.0613035            0.012322            T
         2        -47.0014501            2.290594            F
         3        -46.2066615            2.016635            F
         4        -45.7120182            1.842357            F
         5        -46.2066616            2.016663            F
         6        -47.0014511            2.290600            F
         7        -47.0613035            0.012153            T

     climbing image =  4

     path length          =  6.239 bohr
     inter-image distance =  1.040 bohr

     ------------------------------ iteration   7 ------------------------------

     tcpu =      9.6    self-consistency for image   2
     tcpu =      9.9    self-consistency for image   3
     tcpu =     10.1    self-consistency for image   4
     tcpu =     10.4    self-consistency for image   5
     tcpu =     10.7    self-consistency for image   6

     activation energy (->) =   0.969415 eV
     activation energy (<-) =   0.969415 eV

     image        energy (eV)        error (eV/A)        frozen

         1        -47.0613035            0.012322            T
         2        -46.9253091            3.761504            F
         3        -46.5185120            2.415136            F
         4        -46.0918888            1.737074            F
         5        -46.5185132            2.415160            F
         6        -46.9253076            3.761536            F
         7        -47.0613035            0.012153            T

     climbing image =  4

     path length          =  6.605 bohr
     inter-image distance =  1.101 bohr

     ------------------------------ iteration   8 ------------------------------

     tcpu =     11.0    self-consistency for image   2
     tcpu =     11.2    self-consistency for image   3
     tcpu =     11.5    self-consistency for image   4
     tcpu =     11.7    self-consistency for image   5
     tcpu =     12.0    self-consistency for image   6

     activation energy (->) =   0.930022 eV
     activation energy (<-) =   0.930022 eV

     image        energy (eV)        error (eV/A)        frozen

         1        -47.0613035            0.012322            T
         2        -46.9340633            3.329513            F
         3        -46.5639467            2.420763            F
         4        -46.1312819            1.716881            F
         5        -46.5639487            2.420785            F
         6        -46.9340618            3.329547            F
         7        -47.0613035            0.012153            T

     climbing image =  4

     path length          =  6.570 bohr
     inter-image distance =  1.095 bohr

     ------------------------------ iteration   9 ------------------------------

     tcpu =     12.2    self-consistency for image   2
     tcpu =     12.5    self-consistency for image   3
     tcpu =     12.8    self-consistency for image   4
     tcpu =     13.2    self-consistency for image   5
     tcpu =     13.4    self-consistency for image   6

     activation energy (->) =   0.687477 eV
     activation energy (<-) =   0.687477 eV

     image        energy (eV)        error (eV/A)        frozen

         1        -47.0613035            0.012322            T
         2        -46.9945760            1.490664            F
         3        -46.7985715            2.134745            F
         4        -46.3738262            1.526394            F
         5        -46.7985761            2.134759            F
         6        -46.9945756            1.490682            F
         7        -47.0613035            0.012153            T

     climbing image =  4

     path length          =  6.568 bohr
     inter-image distance =  1.095 bohr

     ------------------------------ iteration  10 ------------------------------

     tcpu =     13.7    self-consistency for image   2
     tcpu =     14.0    self-consistency for image   3
     tcpu =     14.3    self-consistency for image   4
     tcpu =     14.6    self-consistency for image   5
     tcpu =     14.9    self-consistency for image   6

     activation energy (->) =   0.445081 eV
     activation energy (<-) =   0.445081 eV

     image        energy (eV)        error (eV/A)        frozen

         1        -47.0613035            0.012322            T
         2        -47.0435046            2.489094            F
         3        -46.9002321            1.695372            F
         4        -46.6162226            1.132545            F
         5        -46.9002331            1.695449            F
         6        -47.0435051            2.489117            F
         7        -47.0613035            0.012153            T

     climbing image =  4

     path length          =  6.792 bohr
     inter-image distance =  1.132 bohr

     ------------------------------ iteration  11 ------------------------------

     tcpu =     15.2    self-consistency for image   2
     tcpu =     15.5    self-consistency for image   3
     tcpu =     15.7    self-consistency for image   4
     tcpu =     16.0    self-consistency for image   5
     tcpu =     16.2    self-consistency for image   6

     activation energy (->) =   0.499863 eV
     activation energy (<-) =   0.499863 eV

     image        energy (eV)        error (eV/A)        frozen

         1        -47.0613035            0.012322            T
         2        -47.0342359            0.769466            F
         3        -46.9032399            0.957214            F
         4        -46.5614401            1.253075            F
         5        -46.9032432            0.957203            F
         6        -47.0342363            0.769463            F
         7        -47.0613035            0.012153            T

     climbing image =  4

     path length          =  6.690 bohr
     inter-image distance =  1.115 bohr

     ------------------------------ iteration  12 ------------------------------

     tcpu =     16.5    self-consistency for image   2
     tcpu =     16.7    self-consistency for image   3
     tcpu =     16.9    self-consistency for image   4
     tcpu =     17.2    self-consistency for image   5
     tcpu =     17.4    self-consistency for image   6

     activation energy (->) =   0.466400 eV
     activation energy (<-) =   0.466400 eV

     image        energy (eV)        error (eV/A)        frozen

         1        -47.0613035            0.012322            T
         2        -47.0365137            0.557967            F
         3        -46.9089656            0.661239            F
         4        -46.5949038            1.183033            F
         5        -46.9089686            0.661280            F
         6        -47.0365142            0.557960            F
         7        -47.0613035            0.012153            T

     climbing image =  4

     path length          =  6.705 bohr
     inter-image distance =  1.117 bohr

     ------------------------------ iteration  13 ------------------------------

     tcpu =     17.6    self-consistency for image   2
     tcpu =     17.8    self-consistency for image   3
     tcpu =     18.1    self-consistency for image   4
     tcpu =     18.4    self-consistency for image   5
     tcpu =     18.6    self-consistency for image   6

     activation energy (->) =   0.352869 eV
     activation energy (<-) =   0.352869 eV

     image        energy (eV)        error (eV/A)        frozen

         1        -47.0613035            0.012322            T
         2        -47.0353340            0.212367            F
         3        -46.9170685            0.619413            F
         4        -46.7084340            0.836602            F
         5        -46.9170710            0.619439            F
         6        -47.0353347            0.212391            F
         7        -47.0613035            0.012153            T

     climbing image =  4

     path length          =  6.769 bohr
     inter-image distance =  1.128 bohr

     ------------------------------ iteration  14 ------------------------------

     tcpu =     18.9    self-consistency for image   2
     tcpu =     19.1    self-consistency for image   3
     tcpu =     19.3    self-consistency for image   4
     tcpu =     19.5    self-consistency for image   5
     tcpu =     19.7    self-consistency for image   6

     activation energy (->) =   0.337391 eV
     activation energy (<-) =   0.337391 eV

     image        energy (eV)        error (eV/A)        frozen

         1        -47.0613035            0.012322            T
         2        -47.0357017            0.144555            F
         3        -46.9187271            0.473448            F
         4        -46.7239129            0.765878            F
         5        -46.9187300            0.473465            F
         6        -47.0357024            0.144579            F
         7        -47.0613035            0.012153            T

     climbing image =  4

     path length          =  6.766 bohr
     inter-image distance =  1.128 bohr

     ------------------------------ iteration  15 ------------------------------

     tcpu =     19.9    self-consistency for image   2
     tcpu =     20.1    self-consistency for image   3
     tcpu =     20.4    self-consistency for image   4
     tcpu =     20.6    self-consistency for image   5
     tcpu =     20.9    self-consistency for image   6

     activation energy (->) =   0.284437 eV
     activation energy (<-) =   0.284437 eV

     image        energy (eV)        error (eV/A)        frozen

         1        -47.0613035            0.012322            T
         2        -47.0363414            0.496288            F
         3        -46.8965656            0.789647            F
         4        -46.7768665            0.428197            F
         5        -46.8965674            0.789632            F
         6        -47.0363423            0.496322            F
         7        -47.0613035            0.012153            T

     climbing image =  4

     path length          =  6.961 bohr
     inter-image distance =  1.160 bohr

     ------------------------------ iteration  16 ------------------------------

     tcpu =     21.1    self-consistency for image   2
     tcpu =     21.4    self-consistency for image   3
     tcpu =     21.6    self-consistency for image   4
     tcpu =     21.9    self-consistency for image   5
     tcpu =     22.1    self-consistency for image   6

     activation energy (->) =   0.272172 eV
     activation energy (<-) =   0.272172 eV

     image        energy (eV)        error (eV/A)        frozen

         1        -47.0613035            0.012322            T
         2        -47.0362002            0.289698            F
         3        -46.9129155            0.419777            F
         4        -46.7891313            0.155907            F
         5        -46.9129187            0.419777            F
         6        -47.0362010            0.289692            F
         7        -47.0613035            0.012153            T

     climbing image =  4

     path length          =  6.846 bohr
     inter-image distance =  1.141 bohr

     ------------------------------ iteration  17 ------------------------------

     tcpu =     22.3    self-consistency for image   2
     tcpu =     22.5    self-consistency for image   3
     tcpu =     22.8    self-consistency for image   4
     tcpu =     23.0    self-consistency for image   5
     tcpu =     23.2    self-consistency for image   6

     activation energy (->) =   0.271425 eV
     activation energy (<-) =   0.271425 eV

     image        energy (eV)        error (eV/A)        frozen

         1        -47.0613035            0.012322            T
         2        -47.0359326            0.286404            F
         3        -46.9122776            0.364829            F
         4        -46.7898782            0.127873            F
         5        -46.9122808            0.364829            F
         6        -47.0359334            0.286399            F
         7        -47.0613035            0.012153            T

     climbing image =  4

     path length          =  6.854 bohr
     inter-image distance =  1.142 bohr

     ------------------------------ iteration  18 ------------------------------

     tcpu =     23.4    self-consistency for image   2
     tcpu =     23.6    self-consistency for image   3
     tcpu =     23.8    self-consistency for image   4
     tcpu =     24.1    self-consistency for image   5
     tcpu =     24.3    self-consistency for image   6

     activation energy (->) =   0.270824 eV
     activation energy (<-) =   0.270824 eV

     image        energy (eV)        error (eV/A)        frozen

         1        -47.0613035            0.012322            T
         2        -47.0344065            0.194473            F
         3        -46.9096229            0.074263            F
         4        -46.7904795            0.099421            F
         5        -46.9096264            0.074259            F
         6        -47.0344073            0.194470            F
         7        -47.0613035            0.012153            T

     climbing image =  4

     path length          =  6.876 bohr
     inter-image distance =  1.146 bohr

     ------------------------------ iteration  19 ------------------------------

     tcpu =     24.5    self-consistency for image   2
     tcpu =     24.7    self-consistency for image   3
     tcpu =     24.9    self-consistency for image   4
     tcpu =     25.2    self-consistency for image   5
     tcpu =     25.4    self-consistency for image   6

     activation energy (->) =   0.270423 eV
     activation energy (<-) =   0.270423 eV

     image        energy (eV)        error (eV/A)        frozen

         1        -47.0613035            0.012322            T
         2        -47.0333303            0.109430            F
         3        -46.9069198            0.097354            F
         4        -46.7908802            0.074251            F
         5        -46.9069232            0.097373            F
         6        -47.0333312            0.109430            F
         7        -47.0613035            0.012153            T

     climbing image =  4

     path length          =  6.890 bohr
     inter-image distance =  1.148 bohr

     ------------------------------ iteration  20 ------------------------------

     tcpu =     25.6    self-consistency for image   2
     tcpu =     25.8    self-consistency for image   3
     tcpu =     26.0    self-consistency for image   4
     tcpu =     26.2    self-consistency for image   5
     tcpu =     26.3    self-consistency for image   6

     activation energy (->) =   0.270309 eV
     activation energy (<-) =   0.270309 eV

     image        energy (eV)        error (eV/A)        frozen

         1        -47.0613035            0.012322            T
         2        -47.0331924            0.074818            F
         3        -46.9069802            0.088735            F
         4        -46.7909947            0.064609            F
         5        -46.9069836            0.088749            F
         6        -47.0331934            0.074817            F
         7        -47.0613035            0.012153            T

     climbing image =  4

     path length          =  6.890 bohr
     inter-image distance =  1.148 bohr

     ---------------------------------------------------------------------------


     neb: convergence achieved in  20 iterations

     NEB          :     25.29s CPU     26.53s WALL


   This run was terminated on:  19: 9:59  26Apr2021            

=------------------------------------------------------------------------------=
   JOB DONE.
=------------------------------------------------------------------------------=
