 CRYSTAL
 PRIMVEC
    2.728555510    2.728555510    0.000000000
   -2.728555510    2.728555510    0.000000000
    0.000000000    0.000000000   10.914222040
 PRIMCOORD
           6           1
O         0.000000000    2.728555510    5.014349008
C         0.000000000    2.728555510    3.855813478
Rh        0.000000000    0.000000000    1.772850858
Rh        0.000000000    2.728555510    1.987501103
Rh       -1.364277750    1.364277750    0.000000000
Rh        1.364277750    1.364277750    0.000000000
BEGIN_BLOCK_DATAGRID_3D
3D_PWSCF
DATAGRID_3D_UNKNOWN
          37          37          97
  0.000000  0.000000  0.000000
    2.728556    2.728556    0.000000
   -2.728556    2.728556    0.000000
    0.000000    0.000000   10.914222
  0.119320E-06  0.238908E-06  0.583605E-06  0.823058E-06  0.151496E-05  0.203955E-05
  0.219028E-05  0.260685E-05  0.283053E-05  0.395291E-05  0.727756E-05  0.139661E-04
  0.225494E-04  0.278703E-04  0.246856E-04  0.141314E-04  0.437425E-05  0.769173E-06
  0.664942E-06  0.769173E-06  0.437425E-05  0.141314E-04  0.246856E-04  0.278703E-04
  0.225494E-04  0.139661E-04  0.727756E-05  0.395291E-05  0.283053E-05  0.260685E-05
  0.219028E-05  0.203955E-05  0.151496E-05  0.823058E-06  0.583605E-06  0.238908E-06
  0.119320E-06  0.238908E-06  0.238643E-06  0.571986E-06  0.958756E-06  0.160314E-05
  0.216231E-05  0.252707E-05  0.295730E-05  0.309371E-05  0.426197E-05  0.764591E-05
  0.143412E-04  0.231982E-04  0.295390E-04  0.279676E-04  0.185117E-04  0.821745E-05
  0.286514E-05  0.178295E-05  0.286514E-05  0.821745E-05  0.185117E-04  0.279676E-04
  0.295390E-04  0.231982E-04  0.143412E-04  0.764591E-05  0.426197E-05  0.309371E-05
  0.295730E-05  0.252707E-05  0.216231E-05  0.160314E-05  0.958756E-06  0.571986E-06
  0.238643E-06  0.238908E-06  0.583605E-06  0.571986E-06  0.103629E-05  0.156529E-05
  0.211832E-05  0.270696E-05  0.323828E-05  0.372514E-05  0.402706E-05  0.538557E-05
  0.870157E-05  0.152778E-04  0.247859E-04  0.336336E-04  0.364442E-04  0.311454E-04
  0.218691E-04  0.144705E-04  0.119392E-04  0.144705E-04  0.218691E-04  0.311454E-04
  0.364442E-04  0.336336E-04  0.247859E-04  0.152778E-04  0.870157E-05  0.538557E-05
  0.402706E-05  0.372514E-05  0.323828E-05  0.270696E-05  0.211832E-05  0.156529E-05
  0.103629E-05  0.571986E-06  0.583605E-06  0.823058E-06  0.958756E-06  0.156529E-05
  0.209577E-05  0.274676E-05  0.353181E-05  0.420876E-05  0.493779E-05  0.564393E-05
  0.712905E-05  0.102507E-04  0.165510E-04  0.263351E-04  0.375965E-04  0.460206E-04
  0.481225E-04  0.445113E-04  0.393573E-04  0.371730E-04  0.393573E-04  0.445113E-04
  0.481225E-04  0.460206E-04  0.375965E-04  0.263351E-04  0.165510E-04  0.102507E-04
  0.712905E-05  0.564393E-05  0.493779E-05  0.420876E-05  0.353181E-05  0.274676E-05
  0.209577E-05  0.156529E-05  0.958756E-06  0.823058E-06  0.151496E-05  0.160314E-05
  0.211832E-05  0.274676E-05  0.356047E-05  0.450830E-05  0.548697E-05  0.655158E-05
  0.762881E-05  0.927194E-05  0.122759E-04  0.180501E-04  0.270885E-04  0.391113E-04
  0.515821E-04  0.609472E-04  0.653965E-04  0.661606E-04  0.661115E-04  0.661606E-04
  0.653965E-04  0.609472E-04  0.515821E-04  0.391113E-04  0.270885E-04  0.180501E-04
  0.122759E-04  0.927194E-05  0.762881E-05  0.655158E-05  0.548697E-05  0.450830E-05
  0.356047E-05  0.274676E-05  0.211832E-05  0.160314E-05  0.151496E-05  0.203955E-05
  0.216231E-05  0.270696E-05  0.353181E-05  0.450830E-05  0.554948E-05  0.681389E-05
  0.819337E-05  0.983074E-05  0.119470E-04  0.148228E-04  0.198183E-04  0.274905E-04
  0.383415E-04  0.511534E-04  0.635313E-04  0.731999E-04  0.788329E-04  0.807238E-04
  0.788329E-04  0.731999E-04  0.635313E-04  0.511534E-04  0.383415E-04  0.274905E-04
  0.198183E-04  0.148228E-04  0.119470E-04  0.983074E-05  0.819337E-05  0.681389E-05
  0.554948E-05  0.450830E-05  0.353181E-05  0.270696E-05  0.216231E-05  0.203955E-05
  0.219028E-05  0.252707E-05  0.323828E-05  0.420876E-05  0.548697E-05  0.681389E-05
  0.844995E-05  0.101633E-04  0.121842E-04  0.146668E-04  0.175492E-04  0.218949E-04
  0.280357E-04  0.365412E-04  0.469145E-04  0.579876E-04  0.679757E-04  0.746494E-04
  0.770466E-04  0.746494E-04  0.679757E-04  0.579876E-04  0.469145E-04  0.365412E-04
  0.280357E-04  0.218949E-04  0.175492E-04  0.146668E-04  0.121842E-04  0.101633E-04
  0.844995E-05  0.681389E-05  0.548697E-05  0.420876E-05  0.323828E-05  0.252707E-05
  0.219028E-05  0.260685E-05  0.295730E-05  0.372514E-05  0.493779E-05  0.655158E-05
  0.819337E-05  0.101633E-04  0.122244E-04  0.145224E-04  0.172134E-04  0.202342E-04
  0.241332E-04  0.288846E-04  0.349956E-04  0.423259E-04  0.503379E-04  0.578198E-04
  0.630449E-04  0.650151E-04  0.630449E-04  0.578198E-04  0.503379E-04  0.423259E-04
  0.349956E-04  0.288846E-04  0.241332E-04  0.202342E-04  0.172134E-04  0.145224E-04
  0.122244E-04  0.101633E-04  0.819337E-05  0.655158E-05  0.493779E-05  0.372514E-05
  0.295730E-05  0.260685E-05  0.283053E-05  0.309371E-05  0.402706E-05  0.564393E-05
  0.762881E-05  0.983074E-05  0.121842E-04  0.145224E-04  0.170996E-04  0.197725E-04
  0.226182E-04  0.260575E-04  0.298901E-04  0.343171E-04  0.392008E-04  0.443650E-04
  0.491331E-04  0.525537E-04  0.539189E-04  0.525537E-04  0.491331E-04  0.443650E-04
  0.392008E-04  0.343171E-04  0.298901E-04  0.260575E-04  0.226182E-04  0.197725E-04
  0.170996E-04  0.145224E-04  0.121842E-04  0.983074E-05  0.762881E-05  0.564393E-05
  0.402706E-05  0.309371E-05  0.283053E-05  0.395291E-05  0.426197E-05  0.538557E-05
  0.712905E-05  0.927194E-05  0.119470E-04  0.146668E-04  0.172134E-04  0.197725E-04
  0.221787E-04  0.247338E-04  0.276215E-04  0.306923E-04  0.339813E-04  0.373015E-04
  0.406704E-04  0.436626E-04  0.457730E-04  0.466260E-04  0.457730E-04  0.436626E-04
  0.406704E-04  0.373015E-04  0.339813E-04  0.306923E-04  0.276215E-04  0.247338E-04
  0.221787E-04  0.197725E-04  0.172134E-04  0.146668E-04  0.119470E-04  0.927194E-05
  0.712905E-05  0.538557E-05  0.426197E-05  0.395291E-05  0.727756E-05  0.764591E-05
  0.870157E-05  0.102507E-04  0.122759E-04  0.148228E-04  0.175492E-04  0.202342E-04
  0.226182E-04  0.247338E-04  0.269557E-04  0.291526E-04  0.314458E-04  0.338019E-04
  0.360264E-04  0.382813E-04  0.402753E-04  0.416464E-04  0.421654E-04  0.416464E-04
  0.402753E-04  0.382813E-04  0.360264E-04  0.338019E-04  0.314458E-04  0.291526E-04
  0.269557E-04  0.247338E-04  0.226182E-04  0.202342E-04  0.175492E-04  0.148228E-04
  0.122759E-04  0.102507E-04  0.870157E-05  0.764591E-05  0.727756E-05  0.139661E-04
  0.143412E-04  0.152778E-04  0.165510E-04  0.180501E-04  0.198183E-04  0.218949E-04
  0.241332E-04  0.260575E-04  0.276215E-04  0.291526E-04  0.305515E-04  0.320309E-04
  0.335693E-04  0.349752E-04  0.362838E-04  0.375475E-04  0.385101E-04  0.388212E-04
  0.385101E-04  0.375475E-04  0.362838E-04  0.349752E-04  0.335693E-04  0.320309E-04
  0.305515E-04  0.291526E-04  0.276215E-04  0.260575E-04  0.241332E-04  0.218949E-04
  0.198183E-04  0.180501E-04  0.165510E-04  0.152778E-04  0.143412E-04  0.139661E-04
  0.225494E-04  0.231982E-04  0.247859E-04  0.263351E-04  0.270885E-04  0.274905E-04
  0.280357E-04  0.288846E-04  0.298901E-04  0.306923E-04  0.314458E-04  0.320309E-04
  0.324895E-04  0.332070E-04  0.340164E-04  0.345323E-04  0.352193E-04  0.358828E-04
  0.360158E-04  0.358828E-04  0.352193E-04  0.345323E-04  0.340164E-04  0.332070E-04
  0.324895E-04  0.320309E-04  0.314458E-04  0.306923E-04  0.298901E-04  0.288846E-04
  0.280357E-04  0.274905E-04  0.270885E-04  0.263351E-04  0.247859E-04  0.231982E-04
  0.225494E-04  0.278703E-04  0.295390E-04  0.336336E-04  0.375965E-04  0.391113E-04
  0.383415E-04  0.365412E-04  0.349956E-04  0.343171E-04  0.339813E-04  0.338019E-04
  0.335693E-04  0.332070E-04  0.331009E-04  0.331602E-04  0.331070E-04  0.334466E-04
  0.338624E-04  0.338790E-04  0.338624E-04  0.334466E-04  0.331070E-04  0.331602E-04
  0.331009E-04  0.332070E-04  0.335693E-04  0.338019E-04  0.339813E-04  0.343171E-04
  0.349956E-04  0.365412E-04  0.383415E-04  0.391113E-04  0.375965E-04  0.336336E-04
  0.295390E-04  0.278703E-04  0.246856E-04  0.279676E-04  0.364442E-04  0.460206E-04
  0.515821E-04  0.511534E-04  0.469145E-04  0.423259E-04  0.392008E-04  0.373015E-04
  0.360264E-04  0.349752E-04  0.340164E-04  0.331602E-04  0.325606E-04  0.322237E-04
  0.321999E-04  0.323531E-04  0.323868E-04  0.323531E-04  0.321999E-04  0.322237E-04
  0.325606E-04  0.331602E-04  0.340164E-04  0.349752E-04  0.360264E-04  0.373015E-04
  0.392008E-04  0.423259E-04  0.469145E-04  0.511534E-04  0.515821E-04  0.460206E-04
  0.364442E-04  0.279676E-04  0.246856E-04  0.141314E-04  0.185117E-04  0.311454E-04
  0.481225E-04  0.609472E-04  0.635313E-04  0.579876E-04  0.503379E-04  0.443650E-04
  0.406704E-04  0.382813E-04  0.362838E-04  0.345323E-04  0.331070E-04  0.322237E-04
  0.317372E-04  0.314234E-04  0.314533E-04  0.315672E-04  0.314533E-04  0.314234E-04
  0.317372E-04  0.322237E-04  0.331070E-04  0.345323E-04  0.362838E-04  0.382813E-04
  0.406704E-04  0.443650E-04  0.503379E-04  0.579876E-04  0.635313E-04  0.609472E-04
  0.481225E-04  0.311454E-04  0.185117E-04  0.141314E-04  0.437425E-05  0.821745E-05
  0.218691E-04  0.445113E-04  0.653965E-04  0.731999E-04  0.679757E-04  0.578198E-04
  0.491331E-04  0.436626E-04  0.402753E-04  0.375475E-04  0.352193E-04  0.334466E-04
  0.321999E-04  0.314234E-04  0.310880E-04  0.311171E-04  0.312030E-04  0.311171E-04
  0.310880E-04  0.314234E-04  0.321999E-04  0.334466E-04  0.352193E-04  0.375475E-04
  0.402753E-04  0.436626E-04  0.491331E-04  0.578198E-04  0.679757E-04  0.731999E-04
  0.653965E-04  0.445113E-04  0.218691E-04  0.821745E-05  0.437425E-05  0.769173E-06
  0.286514E-05  0.144705E-04  0.393573E-04  0.661606E-04  0.788329E-04  0.746494E-04
  0.630449E-04  0.525537E-04  0.457730E-04  0.416464E-04  0.385101E-04  0.358828E-04
  0.338624E-04  0.323531E-04  0.314533E-04  0.311171E-04  0.310605E-04  0.310828E-04
  0.310605E-04  0.311171E-04  0.314533E-04  0.323531E-04  0.338624E-04  0.358828E-04
  0.385101E-04  0.416464E-04  0.457730E-04  0.525537E-04  0.630449E-04  0.746494E-04
  0.788329E-04  0.661606E-04  0.393573E-04  0.144705E-04  0.286514E-05  0.769173E-06
  0.664942E-06  0.178295E-05  0.119392E-04  0.371730E-04  0.661115E-04  0.807238E-04
  0.770466E-04  0.650151E-04  0.539189E-04  0.466260E-04  0.421654E-04  0.388212E-04
  0.360158E-04  0.338790E-04  0.323868E-04  0.315672E-04  0.312030E-04  0.310828E-04
  0.311028E-04  0.310828E-04  0.312030E-04  0.315672E-04  0.323868E-04  0.338790E-04
  0.360158E-04  0.388212E-04  0.421654E-04  0.466260E-04  0.539189E-04  0.650151E-04
  0.770466E-04  0.807238E-04  0.661115E-04  0.371730E-04  0.119392E-04  0.178295E-05
  0.664942E-06  0.769173E-06  0.286514E-05  0.144705E-04  0.393573E-04  0.661606E-04
  0.788329E-04  0.746494E-04  0.630449E-04  0.525537E-04  0.457730E-04  0.416464E-04
  0.385101E-04  0.358828E-04  0.338624E-04  0.323531E-04  0.314533E-04  0.311171E-04
  0.310605E-04  0.310828E-04  0.310605E-04  0.311171E-04  0.314533E-04  0.323531E-04
  0.338624E-04  0.358828E-04  0.385101E-04  0.416464E-04  0.457730E-04  0.525537E-04
  0.630449E-04  0.746494E-04  0.788329E-04  0.661606E-04  0.393573E-04  0.144705E-04
  0.286514E-05  0.769173E-06  0.437425E-05  0.821745E-05  0.218691E-04  0.445113E-04
  0.653965E-04  0.731999E-04  0.679757E-04  0.578198E-04  0.491331E-04  0.436626E-04
  0.402753E-04  0.375475E-04  0.352193E-04  0.334466E-04  0.321999E-04  0.314234E-04
  0.310880E-04  0.311171E-04  0.312030E-04  0.311171E-04  0.310880E-04  0.314234E-04
  0.321999E-04  0.334466E-04  0.352193E-04  0.375475E-04  0.402753E-04  0.436626E-04
  0.491331E-04  0.578198E-04  0.679757E-04  0.731999E-04  0.653965E-04  0.445113E-04
  0.218691E-04  0.821745E-05  0.437425E-05  0.141314E-04  0.185117E-04  0.311454E-04
  0.481225E-04  0.609472E-04  0.635313E-04  0.579876E-04  0.503379E-04  0.443650E-04
  0.406704E-04  0.382813E-04  0.362838E-04  0.345323E-04  0.331070E-04  0.322237E-04
  0.317372E-04  0.314234E-04  0.314533E-04  0.315672E-04  0.314533E-04  0.314234E-04
  0.317372E-04  0.322237E-04  0.331070E-04  0.345323E-04  0.362838E-04  0.382813E-04
  0.406704E-04  0.443650E-04  0.503379E-04  0.579876E-04  0.635313E-04  0.609472E-04
  0.481225E-04  0.311454E-04  0.185117E-04  0.141314E-04  0.246856E-04  0.279676E-04
  0.364442E-04  0.460206E-04  0.515821E-04  0.511534E-04  0.469145E-04  0.423259E-04
  0.392008E-04  0.373015E-04  0.360264E-04  0.349752E-04  0.340164E-04  0.331602E-04
  0.325606E-04  0.322237E-04  0.321999E-04  0.323531E-04  0.323868E-04  0.323531E-04
  0.321999E-04  0.322237E-04  0.325606E-04  0.331602E-04  0.340164E-04  0.349752E-04
  0.360264E-04  0.373015E-04  0.392008E-04  0.423259E-04  0.469145E-04  0.511534E-04
  0.515821E-04  0.460206E-04  0.364442E-04  0.279676E-04  0.246856E-04  0.278703E-04
  0.295390E-04  0.336336E-04  0.375965E-04  0.391113E-04  0.383415E-04  0.365412E-04
  0.349956E-04  0.343171E-04  0.339813E-04  0.338019E-04  0.335693E-04  0.332070E-04
  0.331009E-04  0.331602E-04  0.331070E-04  0.334466E-04  0.338624E-04  0.338790E-04
  0.338624E-04  0.334466E-04  0.331070E-04  0.331602E-04  0.331009E-04  0.332070E-04
  0.335693E-04  0.338019E-04  0.339813E-04  0.343171E-04  0.349956E-04  0.365412E-04
  0.383415E-04  0.391113E-04  0.375965E-04  0.336336E-04  0.295390E-04  0.278703E-04
  0.225494E-04  0.231982E-04  0.247859E-04  0.263351E-04  0.270885E-04  0.274905E-04
  0.280357E-04  0.288846E-04  0.298901E-04  0.306923E-04  0.314458E-04  0.320309E-04
  0.324895E-04  0.332070E-04  0.340164E-04  0.345323E-04  0.352193E-04  0.358828E-04
  0.360158E-04  0.358828E-04  0.352193E-04  0.345323E-04  0.340164E-04  0.332070E-04
  0.324895E-04  0.320309E-04  0.314458E-04  0.306923E-04  0.298901E-04  0.288846E-04
  0.280357E-04  0.274905E-04  0.270885E-04  0.263351E-04  0.247859E-04  0.231982E-04
  0.225494E-04  0.139661E-04  0.143412E-04  0.152778E-04  0.165510E-04  0.180501E-04
  0.198183E-04  0.218949E-04  0.241332E-04  0.260575E-04  0.276215E-04  0.291526E-04
  0.305515E-04  0.320309E-04  0.335693E-04  0.349752E-04  0.362838E-04  0.375475E-04
  0.385101E-04  0.388212E-04  0.385101E-04  0.375475E-04  0.362838E-04  0.349752E-04
  0.335693E-04  0.320309E-04  0.305515E-04  0.291526E-04  0.276215E-04  0.260575E-04
  0.241332E-04  0.218949E-04  0.198183E-04  0.180501E-04  0.165510E-04  0.152778E-04
  0.143412E-04  0.139661E-04  0.727756E-05  0.764591E-05  0.870157E-05  0.102507E-04
  0.122759E-04  0.148228E-04  0.175492E-04  0.202342E-04  0.226182E-04  0.247338E-04
  0.269557E-04  0.291526E-04  0.314458E-04  0.338019E-04  0.360264E-04  0.382813E-04
  0.402753E-04  0.416464E-04  0.421654E-04  0.416464E-04  0.402753E-04  0.382813E-04
  0.360264E-04  0.338019E-04  0.314458E-04  0.291526E-04  0.269557E-04  0.247338E-04
  0.226182E-04  0.202342E-04  0.175492E-04  0.148228E-04  0.122759E-04  0.102507E-04
  0.870157E-05  0.764591E-05  0.727756E-05  0.395291E-05  0.426197E-05  0.538557E-05
  0.712905E-05  0.927194E-05  0.119470E-04  0.146668E-04  0.172134E-04  0.197725E-04
  0.221787E-04  0.247338E-04  0.276215E-04  0.306923E-04  0.339813E-04  0.373015E-04
  0.406704E-04  0.436626E-04  0.457730E-04  0.466260E-04  0.457730E-04  0.436626E-04
  0.406704E-04  0.373015E-04  0.339813E-04  0.306923E-04  0.276215E-04  0.247338E-04
  0.221787E-04  0.197725E-04  0.172134E-04  0.146668E-04  0.119470E-04  0.927194E-05
  0.712905E-05  0.538557E-05  0.426197E-05  0.395291E-05  0.283053E-05  0.309371E-05
  0.402706E-05  0.564393E-05  0.762881E-05  0.983074E-05  0.121842E-04  0.145224E-04
  0.170996E-04  0.197725E-04  0.226182E-04  0.260575E-04  0.298901E-04  0.343171E-04
  0.392008E-04  0.443650E-04  0.491331E-04  0.525537E-04  0.539189E-04  0.525537E-04
  0.491331E-04  0.443650E-04  0.392008E-04  0.343171E-04  0.298901E-04  0.260575E-04
  0.226182E-04  0.197725E-04  0.170996E-04  0.145224E-04  0.121842E-04  0.983074E-05
  0.762881E-05  0.564393E-05  0.402706E-05  0.309371E-05  0.283053E-05  0.260685E-05
  0.295730E-05  0.372514E-05  0.493779E-05  0.655158E-05  0.819337E-05  0.101633E-04
  0.122244E-04  0.145224E-04  0.172134E-04  0.202342E-04  0.241332E-04  0.288846E-04
  0.349956E-04  0.423259E-04  0.503379E-04  0.578198E-04  0.630449E-04  0.650151E-04
  0.630449E-04  0.578198E-04  0.503379E-04  0.423259E-04  0.349956E-04  0.288846E-04
  0.241332E-04  0.202342E-04  0.172134E-04  0.145224E-04  0.122244E-04  0.101633E-04
  0.819337E-05  0.655158E-05  0.493779E-05  0.372514E-05  0.295730E-05  0.260685E-05
  0.219028E-05  0.252707E-05  0.323828E-05  0.420876E-05  0.548697E-05  0.681389E-05
  0.844995E-05  0.101633E-04  0.121842E-04  0.146668E-04  0.175492E-04  0.218949E-04
  0.280357E-04  0.365412E-04  0.469145E-04  0.579876E-04  0.679757E-04  0.746494E-04
  0.770466E-04  0.746494E-04  0.679757E-04  0.579876E-04  0.469145E-04  0.365412E-04
  0.280357E-04  0.218949E-04  0.175492E-04  0.146668E-04  0.121842E-04  0.101633E-04
  0.844995E-05  0.681389E-05  0.548697E-05  0.420876E-05  0.323828E-05  0.252707E-05
  0.219028E-05  0.203955E-05  0.216231E-05  0.270696E-05  0.353181E-05  0.450830E-05
  0.554948E-05  0.681389E-05  0.819337E-05  0.983074E-05  0.119470E-04  0.148228E-04
  0.198183E-04  0.274905E-04  0.383415E-04  0.511534E-04  0.635313E-04  0.731999E-04
  0.788329E-04  0.807238E-04  0.788329E-04  0.731999E-04  0.635313E-04  0.511534E-04
  0.383415E-04  0.274905E-04  0.198183E-04  0.148228E-04  0.119470E-04  0.983074E-05
  0.819337E-05  0.681389E-05  0.554948E-05  0.450830E-05  0.353181E-05  0.270696E-05
  0.216231E-05  0.203955E-05  0.151496E-05  0.160314E-05  0.211832E-05  0.274676E-05
  0.356047E-05  0.450830E-05  0.548697E-05  0.655158E-05  0.762881E-05  0.927194E-05
  0.122759E-04  0.180501E-04  0.270885E-04  0.391113E-04  0.515821E-04  0.609472E-04
  0.653965E-04  0.661606E-04  0.661115E-04  0.661606E-04  0.653965E-04  0.609472E-04
  0.515821E-04  0.391113E-04  0.270885E-04  0.180501E-04  0.122759E-04  0.927194E-05
  0.762881E-05  0.655158E-05  0.548697E-05  0.450830E-05  0.356047E-05  0.274676E-05
  0.211832E-05  0.160314E-05  0.151496E-05  0.823058E-06  0.958756E-06  0.156529E-05
  0.209577E-05  0.274676E-05  0.353181E-05  0.420876E-05  0.493779E-05  0.564393E-05
  0.712905E-05  0.102507E-04  0.165510E-04  0.263351E-04  0.375965E-04  0.460206E-04
  0.481225E-04  0.445113E-04  0.393573E-04  0.371730E-04  0.393573E-04  0.445113E-04
  0.481225E-04  0.460206E-04  0.375965E-04  0.263351E-04  0.165510E-04  0.102507E-04
  0.712905E-05  0.564393E-05  0.493779E-05  0.420876E-05  0.353181E-05  0.274676E-05
  0.209577E-05  0.156529E-05  0.958756E-06  0.823058E-06  0.583605E-06  0.571986E-06
  0.103629E-05  0.156529E-05  0.211832E-05  0.270696E-05  0.323828E-05  0.372514E-05
  0.402706E-05  0.538557E-05  0.870157E-05  0.152778E-04  0.247859E-04  0.336336E-04
  0.364442E-04  0.311454E-04  0.218691E-04  0.144705E-04  0.119392E-04  0.144705E-04
  0.218691E-04  0.311454E-04  0.364442E-04  0.336336E-04  0.247859E-04  0.152778E-04
  0.870157E-05  0.538557E-05  0.402706E-05  0.372514E-05  0.323828E-05  0.270696E-05
  0.211832E-05  0.156529E-05  0.103629E-05  0.571986E-06  0.583605E-06  0.238908E-06
  0.238643E-06  0.571986E-06  0.958756E-06  0.160314E-05  0.216231E-05  0.252707E-05
  0.295730E-05  0.309371E-05  0.426197E-05  0.764591E-05  0.143412E-04  0.231982E-04
  0.295390E-04  0.279676E-04  0.185117E-04  0.821745E-05  0.286514E-05  0.178295E-05
  0.286514E-05  0.821745E-05  0.185117E-04  0.279676E-04  0.295390E-04  0.231982E-04
  0.143412E-04  0.764591E-05  0.426197E-05  0.309371E-05  0.295730E-05  0.252707E-05
  0.216231E-05  0.160314E-05  0.958756E-06  0.571986E-06  0.238643E-06  0.238908E-06
  0.119320E-06  0.238908E-06  0.583605E-06  0.823058E-06  0.151496E-05  0.203955E-05
  0.219028E-05  0.260685E-05  0.283053E-05  0.395291E-05  0.727756E-05  0.139661E-04
  0.225494E-04  0.278703E-04  0.246856E-04  0.141314E-04  0.437425E-05  0.769173E-06
  0.664942E-06  0.769173E-06  0.437425E-05  0.141314E-04  0.246856E-04  0.278703E-04
  0.225494E-04  0.139661E-04  0.727756E-05  0.395291E-05  0.283053E-05  0.260685E-05
  0.219028E-05  0.203955E-05  0.151496E-05  0.823058E-06  0.583605E-06  0.238908E-06
  0.119320E-06  0.625535E-07  0.236453E-06  0.772095E-06  0.131739E-05  0.211981E-05
  0.284867E-05  0.346131E-05  0.377250E-05  0.386054E-05  0.494749E-05  0.790429E-05
  0.142787E-04  0.227634E-04  0.287528E-04  0.267439E-04  0.173096E-04  0.716217E-05
  0.173378E-05  0.757242E-06  0.173378E-05  0.716217E-05  0.173096E-04  0.267439E-04
  0.287528E-04  0.227634E-04  0.142787E-04  0.790429E-05  0.494749E-05  0.386054E-05
  0.377250E-05  0.346131E-05  0.284867E-05  0.211981E-05  0.131739E-05  0.772095E-06
  0.236453E-06  0.625535E-07  0.236453E-06  0.304275E-06  0.784796E-06  0.138838E-05
  0.217618E-05  0.293757E-05  0.371449E-05  0.422722E-05  0.436482E-05  0.537443E-05
  0.832305E-05  0.147073E-04  0.233593E-04  0.303101E-04  0.298541E-04  0.213329E-04
  0.108347E-04  0.405459E-05  0.221398E-05  0.405459E-05  0.108347E-04  0.213329E-04
  0.298541E-04  0.303101E-04  0.233593E-04  0.147073E-04  0.832305E-05  0.537443E-05
  0.436482E-05  0.422722E-05  0.371449E-05  0.293757E-05  0.217618E-05  0.138838E-05
  0.784796E-06  0.304275E-06  0.236453E-06  0.772095E-06  0.784796E-06  0.129765E-05
  0.199139E-05  0.283651E-05  0.362963E-05  0.435499E-05  0.508521E-05  0.558784E-05
  0.667770E-05  0.951919E-05  0.158096E-04  0.248985E-04  0.340107E-04  0.376179E-04
  0.329384E-04  0.238728E-04  0.159562E-04  0.130246E-04  0.159562E-04  0.238728E-04
  0.329384E-04  0.376179E-04  0.340107E-04  0.248985E-04  0.158096E-04  0.951919E-05
  0.667770E-05  0.558784E-05  0.508521E-05  0.435499E-05  0.362963E-05  0.283651E-05
  0.199139E-05  0.129765E-05  0.784796E-06  0.772095E-06  0.131739E-05  0.138838E-05
  0.199139E-05  0.268132E-05  0.363509E-05  0.467591E-05  0.543720E-05  0.632148E-05
  0.726275E-05  0.860667E-05  0.113268E-04  0.173561E-04  0.267441E-04  0.378361E-04
  0.464440E-04  0.487781E-04  0.453322E-04  0.401381E-04  0.379000E-04  0.401381E-04
  0.453322E-04  0.487781E-04  0.464440E-04  0.378361E-04  0.267441E-04  0.173561E-04
  0.113268E-04  0.860667E-05  0.726275E-05  0.632148E-05  0.543720E-05  0.467591E-05
  0.363509E-05  0.268132E-05  0.199139E-05  0.138838E-05  0.131739E-05  0.211981E-05
  0.217618E-05  0.283651E-05  0.363509E-05  0.454849E-05  0.577256E-05  0.696053E-05
  0.814397E-05  0.944097E-05  0.111859E-04  0.139450E-04  0.193631E-04  0.281547E-04
  0.398793E-04  0.519980E-04  0.611302E-04  0.652517E-04  0.658460E-04  0.658730E-04
  0.658460E-04  0.652517E-04  0.611302E-04  0.519980E-04  0.398793E-04  0.281547E-04
  0.193631E-04  0.139450E-04  0.111859E-04  0.944097E-05  0.814397E-05  0.696053E-05
  0.577256E-05  0.454849E-05  0.363509E-05  0.283651E-05  0.217618E-05  0.211981E-05
  0.284867E-05  0.293757E-05  0.362963E-05  0.467591E-05  0.577256E-05  0.707773E-05
  0.858691E-05  0.101288E-04  0.119244E-04  0.142031E-04  0.171442E-04  0.218738E-04
  0.293016E-04  0.399108E-04  0.522307E-04  0.641691E-04  0.733643E-04  0.786946E-04
  0.805858E-04  0.786946E-04  0.733643E-04  0.641691E-04  0.522307E-04  0.399108E-04
  0.293016E-04  0.218738E-04  0.171442E-04  0.142031E-04  0.119244E-04  0.101288E-04
  0.858691E-05  0.707773E-05  0.577256E-05  0.467591E-05  0.362963E-05  0.293757E-05
  0.284867E-05  0.346131E-05  0.371449E-05  0.435499E-05  0.543720E-05  0.696053E-05
  0.858691E-05  0.104789E-04  0.124777E-04  0.146379E-04  0.172028E-04  0.203598E-04
  0.246869E-04  0.306482E-04  0.390484E-04  0.491393E-04  0.598639E-04  0.695540E-04
  0.759271E-04  0.781621E-04  0.759271E-04  0.695540E-04  0.598639E-04  0.491393E-04
  0.390484E-04  0.306482E-04  0.246869E-04  0.203598E-04  0.172028E-04  0.146379E-04
  0.124777E-04  0.104789E-04  0.858691E-05  0.696053E-05  0.543720E-05  0.435499E-05
  0.371449E-05  0.346131E-05  0.377250E-05  0.422722E-05  0.508521E-05  0.632148E-05
  0.814397E-05  0.101288E-04  0.124777E-04  0.149822E-04  0.174816E-04  0.203378E-04
  0.236469E-04  0.275886E-04  0.323507E-04  0.384998E-04  0.458394E-04  0.536767E-04
  0.610123E-04  0.662042E-04  0.680857E-04  0.662042E-04  0.610123E-04  0.536767E-04
  0.458394E-04  0.384998E-04  0.323507E-04  0.275886E-04  0.236469E-04  0.203378E-04
  0.174816E-04  0.149822E-04  0.124777E-04  0.101288E-04  0.814397E-05  0.632148E-05
  0.508521E-05  0.422722E-05  0.377250E-05  0.386054E-05  0.436482E-05  0.558784E-05
  0.726275E-05  0.944097E-05  0.119244E-04  0.146379E-04  0.174816E-04  0.202232E-04
  0.231698E-04  0.263988E-04  0.299829E-04  0.340609E-04  0.385736E-04  0.437052E-04
  0.489831E-04  0.537734E-04  0.574105E-04  0.587901E-04  0.574105E-04  0.537734E-04
  0.489831E-04  0.437052E-04  0.385736E-04  0.340609E-04  0.299829E-04  0.263988E-04
  0.231698E-04  0.202232E-04  0.174816E-04  0.146379E-04  0.119244E-04  0.944097E-05
  0.726275E-05  0.558784E-05  0.436482E-05  0.386054E-05  0.494749E-05  0.537443E-05
  0.667770E-05  0.860667E-05  0.111859E-04  0.142031E-04  0.172028E-04  0.203378E-04
  0.231698E-04  0.259215E-04  0.289005E-04  0.320213E-04  0.354965E-04  0.389029E-04
  0.425600E-04  0.462312E-04  0.494778E-04  0.518976E-04  0.527037E-04  0.518976E-04
  0.494778E-04  0.462312E-04  0.425600E-04  0.389029E-04  0.354965E-04  0.320213E-04
  0.289005E-04  0.259215E-04  0.231698E-04  0.203378E-04  0.172028E-04  0.142031E-04
  0.111859E-04  0.860667E-05  0.667770E-05  0.537443E-05  0.494749E-05  0.790429E-05
  0.832305E-05  0.951919E-05  0.113268E-04  0.139450E-04  0.171442E-04  0.203598E-04
  0.236469E-04  0.263988E-04  0.289005E-04  0.314509E-04  0.338807E-04  0.366769E-04
  0.392506E-04  0.418344E-04  0.443661E-04  0.466795E-04  0.484841E-04  0.490127E-04
  0.484841E-04  0.466795E-04  0.443661E-04  0.418344E-04  0.392506E-04  0.366769E-04
  0.338807E-04  0.314509E-04  0.289005E-04  0.263988E-04  0.236469E-04  0.203598E-04
  0.171442E-04  0.139450E-04  0.113268E-04  0.951919E-05  0.832305E-05  0.790429E-05
  0.142787E-04  0.147073E-04  0.158096E-04  0.173561E-04  0.193631E-04  0.218738E-04
  0.246869E-04  0.275886E-04  0.299829E-04  0.320213E-04  0.338807E-04  0.356037E-04
  0.376720E-04  0.394045E-04  0.411947E-04  0.429889E-04  0.445200E-04  0.458521E-04
  0.462944E-04  0.458521E-04  0.445200E-04  0.429889E-04  0.411947E-04  0.394045E-04
  0.376720E-04  0.356037E-04  0.338807E-04  0.320213E-04  0.299829E-04  0.275886E-04
  0.246869E-04  0.218738E-04  0.193631E-04  0.173561E-04  0.158096E-04  0.147073E-04
  0.142787E-04  0.227634E-04  0.233593E-04  0.248985E-04  0.267441E-04  0.281547E-04
  0.293016E-04  0.306482E-04  0.323507E-04  0.340609E-04  0.354965E-04  0.366769E-04
  0.376720E-04  0.388366E-04  0.397052E-04  0.406957E-04  0.418552E-04  0.428374E-04
  0.437448E-04  0.440778E-04  0.437448E-04  0.428374E-04  0.418552E-04  0.406957E-04
  0.397052E-04  0.388366E-04  0.376720E-04  0.366769E-04  0.354965E-04  0.340609E-04
  0.323507E-04  0.306482E-04  0.293016E-04  0.281547E-04  0.267441E-04  0.248985E-04
  0.233593E-04  0.227634E-04  0.287528E-04  0.303101E-04  0.340107E-04  0.378361E-04
  0.398793E-04  0.399108E-04  0.390484E-04  0.384998E-04  0.385736E-04  0.389029E-04
  0.392506E-04  0.394045E-04  0.397052E-04  0.399237E-04  0.401884E-04  0.407310E-04
  0.413979E-04  0.420344E-04  0.422457E-04  0.420344E-04  0.413979E-04  0.407310E-04
  0.401884E-04  0.399237E-04  0.397052E-04  0.394045E-04  0.392506E-04  0.389029E-04
  0.385736E-04  0.384998E-04  0.390484E-04  0.399108E-04  0.398793E-04  0.378361E-04
  0.340107E-04  0.303101E-04  0.287528E-04  0.267439E-04  0.298541E-04  0.376179E-04
  0.464440E-04  0.519980E-04  0.522307E-04  0.491393E-04  0.458394E-04  0.437052E-04
  0.425600E-04  0.418344E-04  0.411947E-04  0.406957E-04  0.401884E-04  0.400234E-04
  0.401966E-04  0.405064E-04  0.409134E-04  0.410581E-04  0.409134E-04  0.405064E-04
  0.401966E-04  0.400234E-04  0.401884E-04  0.406957E-04  0.411947E-04  0.418344E-04
  0.425600E-04  0.437052E-04  0.458394E-04  0.491393E-04  0.522307E-04  0.519980E-04
  0.464440E-04  0.376179E-04  0.298541E-04  0.267439E-04  0.173096E-04  0.213329E-04
  0.329384E-04  0.487781E-04  0.611302E-04  0.641691E-04  0.598639E-04  0.536767E-04
  0.489831E-04  0.462312E-04  0.443661E-04  0.429889E-04  0.418552E-04  0.407310E-04
  0.401966E-04  0.399941E-04  0.400556E-04  0.404144E-04  0.405446E-04  0.404144E-04
  0.400556E-04  0.399941E-04  0.401966E-04  0.407310E-04  0.418552E-04  0.429889E-04
  0.443661E-04  0.462312E-04  0.489831E-04  0.536767E-04  0.598639E-04  0.641691E-04
  0.611302E-04  0.487781E-04  0.329384E-04  0.213329E-04  0.173096E-04  0.716217E-05
  0.108347E-04  0.238728E-04  0.453322E-04  0.652517E-04  0.733643E-04  0.695540E-04
  0.610123E-04  0.537734E-04  0.494778E-04  0.466795E-04  0.445200E-04  0.428374E-04
  0.413979E-04  0.405064E-04  0.400556E-04  0.401158E-04  0.403472E-04  0.403398E-04
  0.403472E-04  0.401158E-04  0.400556E-04  0.405064E-04  0.413979E-04  0.428374E-04
  0.445200E-04  0.466795E-04  0.494778E-04  0.537734E-04  0.610123E-04  0.695540E-04
  0.733643E-04  0.652517E-04  0.453322E-04  0.238728E-04  0.108347E-04  0.716217E-05
  0.173378E-05  0.405459E-05  0.159562E-04  0.401381E-04  0.658460E-04  0.786946E-04
  0.759271E-04  0.662042E-04  0.574105E-04  0.518976E-04  0.484841E-04  0.458521E-04
  0.437448E-04  0.420344E-04  0.409134E-04  0.404144E-04  0.403472E-04  0.404562E-04
  0.404998E-04  0.404562E-04  0.403472E-04  0.404144E-04  0.409134E-04  0.420344E-04
  0.437448E-04  0.458521E-04  0.484841E-04  0.518976E-04  0.574105E-04  0.662042E-04
  0.759271E-04  0.786946E-04  0.658460E-04  0.401381E-04  0.159562E-04  0.405459E-05
  0.173378E-05  0.757242E-06  0.221398E-05  0.130246E-04  0.379000E-04  0.658730E-04
  0.805858E-04  0.781621E-04  0.680857E-04  0.587901E-04  0.527037E-04  0.490127E-04
  0.462944E-04  0.440778E-04  0.422457E-04  0.410581E-04  0.405446E-04  0.403398E-04
  0.404998E-04  0.407139E-04  0.404998E-04  0.403398E-04  0.405446E-04  0.410581E-04
  0.422457E-04  0.440778E-04  0.462944E-04  0.490127E-04  0.527037E-04  0.587901E-04