
     Program PWSCF v.6.7GPU starts on 18Apr2021 at 22:12:28 

     This program is part of the open-source Quantum ESPRESSO suite
     for quantum simulation of materials; please cite
         "P. Giannozzi et al., J. Phys.:Condens. Matter 21 395502 (2009);
         "P. Giannozzi et al., J. Phys.:Condens. Matter 29 465901 (2017);
         "P. Giannozzi et al., J. Chem. Phys. 152 154105 (2020);
          URL http://www.quantum-espresso.org", 
     in publications or presentations arising from this work. More details at
     http://www.quantum-espresso.org/quote

     Parallel version (MPI & OpenMP), running on       2 processor cores
     Number of MPI processes:                 2
     Threads/MPI process:                     1

     MPI processes distributed on     1 nodes
     K-points division:     npool     =       2
     Waiting for input...
     Reading input from standard input

     Current dimensions of program PWSCF are:
     Max number of different atomic species (ntypx) = 10
     Max number of k-points (npk) =  40000
     Max angular momentum in pseudopotentials (lmaxx) =  3

     Subspace diagonalization in iterative solution of the eigenvalue problem:
     a serial algorithm will be used


     G-vector sticks info
     --------------------
     sticks:   dense  smooth     PW     G-vecs:    dense   smooth      PW
     Sum        1547     523    165                38823     7395    1289

     Using Slab Decomposition



     bravais-lattice index     =            3
     lattice parameter (alat)  =       5.7000  a.u.
     unit-cell volume          =      92.5965 (a.u.)^3
     number of atoms/cell      =            1
     number of atomic types    =            1
     number of electrons       =        16.00
     number of Kohn-Sham states=           12
     kinetic-energy cutoff     =      70.0000  Ry
     charge density cutoff     =     850.0000  Ry
     scf convergence threshold =      1.0E-08
     mixing beta               =       0.7000
     number of iterations used =            8  plain     mixing
     Exchange-correlation= LDA
                           (   1   1   0   0   0   0   0)

     celldm(1)=   5.700000  celldm(2)=   0.000000  celldm(3)=   0.000000
     celldm(4)=   0.000000  celldm(5)=   0.000000  celldm(6)=   0.000000

     crystal axes: (cart. coord. in units of alat)
               a(1) = (   0.500000   0.500000   0.500000 )  
               a(2) = (  -0.500000   0.500000   0.500000 )  
               a(3) = (  -0.500000  -0.500000   0.500000 )  

     reciprocal axes: (cart. coord. in units 2 pi/alat)
               b(1) = (  1.000000  0.000000  1.000000 )  
               b(2) = ( -1.000000  1.000000  0.000000 )  
               b(3) = (  0.000000 -1.000000  1.000000 )  


     PseudoPot. # 1 for Fe read from file:
     /home/pietro/repositories/materials-for-max-qe2021-online-school/pseudo/Fe.pz-spn-rrkjus_psl.0.2.1.UPF
     MD5 check sum: 3cbc4c6ff80f64c0ae98e6ac432cb3b7
     Pseudo is Ultrasoft + core correction, Zval = 16.0
     Generated using "atomic" code by A. Dal Corso  v.5.0.2 svn rev. 9415
     Using radial grid of 1191 points,  6 beta functions with: 
                l(1) =   0
                l(2) =   0
                l(3) =   1
                l(4) =   1
                l(5) =   2
                l(6) =   2
     Q(r) pseudized with 0 coefficients 


     atomic species   valence    mass     pseudopotential
        Fe            16.00    55.84500     Fe( 1.00)

     48 Sym. Ops., with inversion, found



   Cartesian axes

     site n.     atom                  positions (alat units)
         1           Fe  tau(   1) = (   0.0000000   0.0000000   0.0000000  )

     number of k points=    44  Marzari-Vanderbilt smearing, width (Ry)=  0.0200
                       cart. coord. in units 2pi/alat
        k(    1) = (   0.0000000   0.0000000   0.1000000), wk =   0.0120000
        k(    2) = (   0.0000000  -0.1000000   0.2000000), wk =   0.0480000
        k(    3) = (   0.0000000  -0.2000000   0.3000000), wk =   0.0480000
        k(    4) = (   0.0000000  -0.3000000   0.4000000), wk =   0.0480000
        k(    5) = (   0.0000000  -0.4000000   0.5000000), wk =   0.0480000
        k(    6) = (  -0.1000000   0.1000000   0.1000000), wk =   0.0160000
        k(    7) = (  -0.1000000  -0.1000000   0.3000000), wk =   0.0480000
        k(    8) = (  -0.1000000  -0.2000000   0.4000000), wk =   0.0960000
        k(    9) = (  -0.1000000  -0.3000000   0.5000000), wk =   0.0960000
        k(   10) = (  -0.1000000   0.6000000  -0.4000000), wk =   0.0480000
        k(   11) = (  -0.2000000   0.2000000   0.1000000), wk =   0.0480000
        k(   12) = (  -0.2000000  -0.2000000   0.5000000), wk =   0.0480000
        k(   13) = (  -0.2000000   0.7000000  -0.4000000), wk =   0.0960000
        k(   14) = (  -0.3000000   0.3000000   0.1000000), wk =   0.0480000
        k(   15) = (  -0.3000000   0.2000000   0.2000000), wk =   0.0480000
        k(   16) = (  -0.3000000   0.7000000  -0.3000000), wk =   0.0160000
        k(   17) = (  -0.4000000   0.4000000   0.1000000), wk =   0.0480000
        k(   18) = (  -0.4000000   0.3000000   0.2000000), wk =   0.0960000
        k(   19) = (   0.5000000  -0.5000000   0.1000000), wk =   0.0240000
        k(   20) = (   0.5000000  -0.6000000   0.2000000), wk =   0.0960000
        k(   21) = (   0.5000000  -0.7000000   0.3000000), wk =   0.0480000
        k(   22) = (   0.4000000  -0.6000000   0.3000000), wk =   0.0480000
        k(   23) = (   0.0000000   0.0000000   0.3000000), wk =   0.0120000
        k(   24) = (   0.0000000  -0.1000000   0.4000000), wk =   0.0480000
        k(   25) = (   0.0000000  -0.2000000   0.5000000), wk =   0.0480000
        k(   26) = (   0.0000000  -0.3000000   0.6000000), wk =   0.0480000
        k(   27) = (  -0.1000000  -0.1000000   0.5000000), wk =   0.0480000
        k(   28) = (  -0.1000000  -0.2000000   0.6000000), wk =   0.0960000
        k(   29) = (  -0.1000000   0.7000000  -0.3000000), wk =   0.0480000
        k(   30) = (  -0.2000000   0.8000000  -0.3000000), wk =   0.0480000
        k(   31) = (  -0.3000000   0.3000000   0.3000000), wk =   0.0160000
        k(   32) = (   0.6000000  -0.6000000   0.3000000), wk =   0.0480000
        k(   33) = (   0.5000000  -0.5000000   0.3000000), wk =   0.0240000
        k(   34) = (   0.5000000  -0.6000000   0.4000000), wk =   0.0480000
        k(   35) = (   0.0000000   0.0000000   0.5000000), wk =   0.0120000
        k(   36) = (   0.0000000  -0.1000000   0.6000000), wk =   0.0480000
        k(   37) = (   0.0000000  -0.2000000   0.7000000), wk =   0.0480000
        k(   38) = (  -0.1000000  -0.1000000   0.7000000), wk =   0.0480000
        k(   39) = (  -0.1000000   0.8000000  -0.2000000), wk =   0.0480000
        k(   40) = (   0.5000000  -0.5000000   0.5000000), wk =   0.0040000
        k(   41) = (   0.0000000   0.0000000   0.7000000), wk =   0.0120000
        k(   42) = (   0.0000000  -0.1000000   0.8000000), wk =   0.0480000
        k(   43) = (  -0.1000000   0.9000000  -0.1000000), wk =   0.0160000
        k(   44) = (   0.0000000   0.0000000   0.9000000), wk =   0.0120000

     Dense  grid:    38823 G-vectors     FFT dimensions: (  45,  45,  45)

     Smooth grid:     7395 G-vectors     FFT dimensions: (  27,  27,  27)

     Estimated max dynamical RAM per process >      84.29 MB

     Estimated total dynamical RAM >     159.10 MB

     Check: negative core charge=   -0.000009

     Initial potential from superposition of free atoms

     starting charge   15.99965, renormalised to   16.00000
     Starting wfcs are   13 randomized atomic wfcs

     total cpu time spent up to now is        0.7 secs

     Self-consistent Calculation

     iteration #  1     ecut=    70.00 Ry     beta= 0.70
     Davidson diagonalization with overlap
     ethr =  1.00E-02,  avg # of iterations =  2.8

     Threshold (ethr) on eigenvalues was too large:
     Diagonalizing with lowered threshold

     Davidson diagonalization with overlap
     ethr =  1.14E-04,  avg # of iterations =  4.2

     total cpu time spent up to now is        1.7 secs

     total energy              =    -254.14895761 Ry
     estimated scf accuracy    <       0.01770749 Ry

     iteration #  2     ecut=    70.00 Ry     beta= 0.70
     Davidson diagonalization with overlap
     ethr =  1.11E-04,  avg # of iterations =  2.1

     total cpu time spent up to now is        2.2 secs

     total energy              =    -254.14764869 Ry
     estimated scf accuracy    <       0.07389728 Ry

     iteration #  3     ecut=    70.00 Ry     beta= 0.70
     Davidson diagonalization with overlap
     ethr =  1.11E-04,  avg # of iterations =  2.0

     total cpu time spent up to now is        2.7 secs

     total energy              =    -254.15913588 Ry
     estimated scf accuracy    <       0.00003738 Ry

     iteration #  4     ecut=    70.00 Ry     beta= 0.70
     Davidson diagonalization with overlap
     c_bands:  1 eigenvalues not converged
     ethr =  2.34E-07,  avg # of iterations =  6.2

     total cpu time spent up to now is        3.5 secs

     total energy              =    -254.15919039 Ry
     estimated scf accuracy    <       0.00003029 Ry

     iteration #  5     ecut=    70.00 Ry     beta= 0.70
     Davidson diagonalization with overlap
     ethr =  1.89E-07,  avg # of iterations =  1.5

     total cpu time spent up to now is        4.0 secs

     total energy              =    -254.15919178 Ry
     estimated scf accuracy    <       0.00000267 Ry

     iteration #  6     ecut=    70.00 Ry     beta= 0.70
     Davidson diagonalization with overlap
     ethr =  1.67E-08,  avg # of iterations =  2.1

     total cpu time spent up to now is        4.5 secs

     total energy              =    -254.15919241 Ry
     estimated scf accuracy    <       0.00000005 Ry

     iteration #  7     ecut=    70.00 Ry     beta= 0.70
     Davidson diagonalization with overlap
     ethr =  2.92E-10,  avg # of iterations =  3.9

     total cpu time spent up to now is        5.1 secs

     End of self-consistent calculation

          k = 0.0000 0.0000 0.1000 (   943 PWs)   bands (ev):

   -72.0770 -38.3968 -38.3932 -38.3932   6.8059  12.8235  12.8235  12.8719
    13.9491  14.0536  35.8562  36.7224

          k = 0.0000-0.1000 0.2000 (   930 PWs)   bands (ev):

   -72.0702 -38.4363 -38.4074 -38.3937   7.5034  12.6726  12.7921  13.2015
    13.7780  14.1008  32.5008  35.0245

          k = 0.0000-0.2000 0.3000 (   923 PWs)   bands (ev):

   -72.0593 -38.5026 -38.4304 -38.3930   8.7565  12.4133  12.6753  13.7397
    13.8014  14.1522  28.0936  33.0567

          k = 0.0000-0.3000 0.4000 (   913 PWs)   bands (ev):

   -72.0483 -38.5683 -38.4535 -38.3920  10.0405  12.1629  12.8785  13.8879
    14.2641  14.4697  23.9758  32.1055

          k = 0.0000-0.4000 0.5000 (   912 PWs)   bands (ev):

   -72.0415 -38.6088 -38.4679 -38.3915  10.5339  12.0125  13.5738  13.9598
    14.9004  14.9271  20.8619  31.0711

          k =-0.1000 0.1000 0.1000 (   935 PWs)   bands (ev):

   -72.0736 -38.4242 -38.3932 -38.3932   7.1590  12.7214  12.7214  13.1354
    13.9767  13.9767  34.4004  34.4005

          k =-0.1000-0.1000 0.3000 (   914 PWs)   bands (ev):

   -72.0614 -38.4811 -38.4229 -38.4030   8.4757  12.6023  12.6277  13.5990
    13.6458  14.2036  30.2931  31.0666

          k =-0.1000-0.2000 0.4000 (   917 PWs)   bands (ev):

   -72.0507 -38.5397 -38.4494 -38.4054   9.7983  12.3286  12.5224  13.6616
    14.1970  14.5073  26.2657  29.0937

          k =-0.1000-0.3000 0.5000 (   918 PWs)   bands (ev):

   -72.0419 -38.5867 -38.4727 -38.4056  10.6889  12.1518  12.7438  13.8426
    14.4398  15.5298  22.4551  27.9749

          k =-0.1000 0.6000-0.4000 (   916 PWs)   bands (ev):

   -72.0386 -38.6045 -38.4818 -38.4053  10.8433  12.0964  12.9996  13.8725
    14.6574  16.5523  20.3819  27.5672

          k =-0.2000 0.2000 0.1000 (   922 PWs)   bands (ev):

   -72.0646 -38.4780 -38.4119 -38.3931   8.1605  12.4766  12.5945  13.6689
    13.8734  14.0365  30.3183  32.5586

          k =-0.2000-0.2000 0.5000 (   916 PWs)   bands (ev):

   -72.0420 -38.5692 -38.4804 -38.4138  10.8679  12.0519  12.4881  13.7517
    14.3010  15.7287  24.7550  25.0867

          k =-0.2000 0.7000-0.4000 (   911 PWs)   bands (ev):

   -72.0367 -38.5810 -38.5083 -38.4161  11.3264  12.0449  12.4275  13.9236
    14.3912  17.6046  21.4303  24.1779

          k =-0.3000 0.3000 0.1000 (   920 PWs)   bands (ev):

   -72.0535 -38.5414 -38.4391 -38.3929   9.5370  12.2027  12.5454  13.8983
    14.1017  14.3988  26.0093  30.9965

          k =-0.3000 0.2000 0.2000 (   927 PWs)   bands (ev):

   -72.0555 -38.5289 -38.4260 -38.4036   9.3467  12.2897  12.2938  13.8817
    14.1000  14.4312  28.2888  28.8337

          k =-0.3000 0.7000-0.3000 (   919 PWs)   bands (ev):

   -72.0348 -38.5513 -38.5513 -38.4193  11.7657  12.0332  12.0332  14.1835
    14.1835  20.1705  20.1705  21.9261

          k =-0.4000 0.4000 0.1000 (   911 PWs)   bands (ev):

   -72.0445 -38.5910 -38.4618 -38.3925  10.4641  11.9966  13.1952  13.9880
    14.1558  15.2285  22.2542  29.9505

          k =-0.4000 0.3000 0.2000 (   912 PWs)   bands (ev):

   -72.0464 -38.5684 -38.4560 -38.4072  10.5778  12.0409  12.3381  13.9464
    14.1757  15.4682  24.4126  27.2363

          k = 0.5000-0.5000 0.1000 (   906 PWs)   bands (ev):

   -72.0411 -38.6096 -38.4705 -38.3925  10.6308  11.9206  13.8723  14.0118
    14.1777  15.9057  20.3231  29.5816

          k = 0.5000-0.6000 0.2000 (   908 PWs)   bands (ev):

   -72.0408 -38.5893 -38.4796 -38.4083  10.9870  11.9216  12.8943  14.0289
    14.2321  16.8563  21.1223  26.4919

          k = 0.5000-0.7000 0.3000 (   909 PWs)   bands (ev):

   -72.0406 -38.5718 -38.4893 -38.4180  11.3361  11.9431  12.3010  14.0272
    14.2222  17.1500  23.1351  23.5978

          k = 0.4000-0.6000 0.3000 (   908 PWs)   bands (ev):

   -72.0384 -38.5627 -38.5139 -38.4206  11.4687  11.9594  12.3917  14.1004
    14.2168  18.9710  20.7090  23.0517

          k = 0.0000 0.0000 0.3000 (   915 PWs)   bands (ev):

   -72.0637 -38.4440 -38.4219 -38.4219   8.1684  12.8644  12.8644  13.2184
    13.3830  14.2554  32.3750  33.2295

          k = 0.0000-0.1000 0.4000 (   922 PWs)   bands (ev):

   -72.0533 -38.4996 -38.4458 -38.4266   9.3397  12.6840  12.7409  13.3038
    13.7329  14.4196  28.6184  31.1991

          k = 0.0000-0.2000 0.5000 (   916 PWs)   bands (ev):

   -72.0428 -38.5605 -38.4695 -38.4244  10.5060  12.4074  12.5372  13.6039
    14.4099  14.9362  24.4519  29.5747

          k = 0.0000-0.3000 0.6000 (   918 PWs)   bands (ev):

   -72.0364 -38.5985 -38.4841 -38.4229  10.9365  12.4093  12.5289  13.6788
    14.8846  16.3667  21.1123  28.6265

          k =-0.1000-0.1000 0.5000 (   919 PWs)   bands (ev):

   -72.0432 -38.5388 -38.4731 -38.4388  10.4402  12.2778  12.8308  13.3902
    14.1672  14.9446  26.8736  27.1696

          k =-0.1000-0.2000 0.6000 (   910 PWs)   bands (ev):

   -72.0350 -38.5753 -38.4988 -38.4394  11.1801  12.0138  12.6813  13.6666
    14.5419  16.4320  23.0877  25.8885

          k =-0.1000 0.7000-0.3000 (   916 PWs)   bands (ev):

   -72.0319 -38.5901 -38.5091 -38.4391  11.2951  12.1128  12.5267  13.7396
    14.7517  18.1001  20.6213  25.4598

          k =-0.2000 0.8000-0.3000 (   915 PWs)   bands (ev):

   -72.0302 -38.5713 -38.5365 -38.4430  11.6842  11.7387  12.4423  14.0560
    14.4699  18.8136  21.9148  22.6604

          k =-0.3000 0.3000 0.3000 (   914 PWs)   bands (ev):

   -72.0481 -38.5610 -38.4291 -38.4291  10.5674  12.0306  12.0306  14.0718
    14.0718  15.4902  26.7867  26.7867

          k = 0.6000-0.6000 0.3000 (   908 PWs)   bands (ev):

   -72.0421 -38.5701 -38.4670 -38.4318  11.3707  11.8798  12.1932  14.1059
    14.1670  16.9929  23.1115  26.1607

          k = 0.5000-0.5000 0.3000 (   910 PWs)   bands (ev):

   -72.0399 -38.5671 -38.4882 -38.4330  11.4001  11.8317  12.5790  14.1305
    14.1939  18.5353  20.6931  25.7593

          k = 0.5000-0.6000 0.4000 (   918 PWs)   bands (ev):

   -72.0396 -38.5457 -38.4970 -38.4506  11.6861  11.9350  12.1543  14.1677
    14.1954  19.1794  22.1133  22.7216

          k = 0.0000 0.0000 0.5000 (   920 PWs)   bands (ev):

   -72.0436 -38.5053 -38.4703 -38.4703  10.2698  12.4536  13.1627  13.1627
    13.7884  14.8208  28.9783  28.9783

          k = 0.0000-0.1000 0.6000 (   919 PWs)   bands (ev):

   -72.0339 -38.5486 -38.4948 -38.4761  11.0390  11.9577  13.1968  13.4850
    14.3278  15.8543  25.3117  27.2414

          k = 0.0000-0.2000 0.7000 (   919 PWs)   bands (ev):

   -72.0279 -38.5816 -38.5101 -38.4732  11.3027  11.7439  13.1307  13.6165
    14.8164  17.9329  21.7351  26.2337

          k =-0.1000-0.1000 0.7000 (   913 PWs)   bands (ev):

   -72.0264 -38.5649 -38.5246 -38.4848  11.3318  11.5760  13.2496  13.9150
    14.5835  17.7351  23.9594  24.1960

          k =-0.1000 0.8000-0.2000 (   917 PWs)   bands (ev):

   -72.0236 -38.5719 -38.5392 -38.4846  11.3697  11.4704  13.1925  14.1386
    14.7119  20.0016  21.2022  23.6210

          k = 0.5000-0.5000 0.5000 (   928 PWs)   bands (ev):

   -72.0392 -38.4998 -38.4998 -38.4998  11.9482  11.9482  11.9482  14.2039
    14.2039  21.7644  21.7644  21.7646

          k = 0.0000 0.0000 0.7000 (   920 PWs)   bands (ev):

   -72.0250 -38.5438 -38.5202 -38.5202  11.1831  11.5279  13.8542  13.8542
    14.3691  17.3145  25.3755  25.3755

          k = 0.0000-0.1000 0.8000 (   900 PWs)   bands (ev):

   -72.0195 -38.5641 -38.5353 -38.5223  11.1643  11.2347  13.9995  14.1477
    14.7497  19.6205  22.7204  24.2705

          k =-0.1000 0.9000-0.1000 (   895 PWs)   bands (ev):

   -72.0168 -38.5567 -38.5567 -38.5264  11.0902  11.0902  14.0774  14.6598
    14.6598  21.9585  21.9585  22.4877

          k = 0.0000 0.0000 0.9000 (   888 PWs)   bands (ev):

   -72.0142 -38.5542 -38.5512 -38.5512  10.9505  10.9650  14.6381  14.6381
    14.7327  21.5501  23.0712  23.0712

     the Fermi energy is    14.0603 ev

!    total energy              =    -254.15919242 Ry
     estimated scf accuracy    <          5.3E-09 Ry
     smearing contrib. (-TS)   =      -0.00272018 Ry
     internal energy E=F+TS    =    -254.15647224 Ry

     The total energy is F=E-TS. E is the sum of the following terms:
     one-electron contribution =    -127.94909681 Ry
     hartree contribution      =      71.41805733 Ry
     xc contribution           =     -34.17915854 Ry
     ewald contribution        =    -163.44627422 Ry

     convergence has been achieved in   7 iterations

     Writing output data file ./tempdir/fe.save/

     init_run     :      0.62s CPU      0.63s WALL (       1 calls)
     electrons    :      4.16s CPU      4.39s WALL (       1 calls)

     Called by init_run:
     wfcinit      :      0.13s CPU      0.14s WALL (       1 calls)
     potinit      :      0.01s CPU      0.01s WALL (       1 calls)
     hinit0       :      0.39s CPU      0.39s WALL (       1 calls)

     Called by electrons:
     c_bands      :      2.65s CPU      2.67s WALL (       8 calls)
     sum_band     :      0.96s CPU      1.08s WALL (       8 calls)
     v_of_rho     :      0.05s CPU      0.05s WALL (       8 calls)
     newd         :      0.52s CPU      0.61s WALL (       8 calls)
     mix_rho      :      0.02s CPU      0.02s WALL (       8 calls)

     Called by c_bands:
     init_us_2    :      0.06s CPU      0.06s WALL (     374 calls)
     cegterg      :      2.47s CPU      2.49s WALL (     176 calls)

     Called by *egterg:
     cdiaghg      :      0.08s CPU      0.08s WALL (     733 calls)
     h_psi        :      2.28s CPU      2.30s WALL (     777 calls)
     s_psi        :      0.03s CPU      0.03s WALL (     777 calls)
     g_psi        :      0.01s CPU      0.01s WALL (     579 calls)

     Called by h_psi:
     h_psi:calbec :      0.04s CPU      0.04s WALL (     777 calls)
     vloc_psi     :      2.21s CPU      2.22s WALL (     777 calls)
     add_vuspsi   :      0.03s CPU      0.03s WALL (     777 calls)

     General routines
     calbec       :      0.05s CPU      0.05s WALL (     953 calls)
     fft          :      0.07s CPU      0.07s WALL (      47 calls)
     ffts         :      0.00s CPU      0.00s WALL (      16 calls)
     fftw         :      2.37s CPU      2.39s WALL (   14476 calls)
     interpolate  :      0.02s CPU      0.02s WALL (       8 calls)

     Parallel routines

     PWSCF        :      4.85s CPU      5.09s WALL


   This run was terminated on:  22:12:33  18Apr2021            

=------------------------------------------------------------------------------=
   JOB DONE.
=------------------------------------------------------------------------------=
