
     Program PWSCF v.6.7GPU starts on 18Apr2021 at 22:12:39 

     This program is part of the open-source Quantum ESPRESSO suite
     for quantum simulation of materials; please cite
         "P. Giannozzi et al., J. Phys.:Condens. Matter 21 395502 (2009);
         "P. Giannozzi et al., J. Phys.:Condens. Matter 29 465901 (2017);
         "P. Giannozzi et al., J. Chem. Phys. 152 154105 (2020);
          URL http://www.quantum-espresso.org", 
     in publications or presentations arising from this work. More details at
     http://www.quantum-espresso.org/quote

     Parallel version (MPI & OpenMP), running on       2 processor cores
     Number of MPI processes:                 2
     Threads/MPI process:                     1

     MPI processes distributed on     1 nodes
     K-points division:     npool     =       2
     Waiting for input...
     Reading input from standard input

     Current dimensions of program PWSCF are:
     Max number of different atomic species (ntypx) = 10
     Max number of k-points (npk) =  40000
     Max angular momentum in pseudopotentials (lmaxx) =  3

     Subspace diagonalization in iterative solution of the eigenvalue problem:
     a serial algorithm will be used


     G-vector sticks info
     --------------------
     sticks:   dense  smooth     PW     G-vecs:    dense   smooth      PW
     Sum        1665     553    173                42939     8151    1433

     Using Slab Decomposition



     bravais-lattice index     =            3
     lattice parameter (alat)  =       5.9000  a.u.
     unit-cell volume          =     102.6895 (a.u.)^3
     number of atoms/cell      =            1
     number of atomic types    =            1
     number of electrons       =        16.00
     number of Kohn-Sham states=           12
     kinetic-energy cutoff     =      70.0000  Ry
     charge density cutoff     =     850.0000  Ry
     scf convergence threshold =      1.0E-08
     mixing beta               =       0.7000
     number of iterations used =            8  plain     mixing
     Exchange-correlation= LDA
                           (   1   1   0   0   0   0   0)

     celldm(1)=   5.900000  celldm(2)=   0.000000  celldm(3)=   0.000000
     celldm(4)=   0.000000  celldm(5)=   0.000000  celldm(6)=   0.000000

     crystal axes: (cart. coord. in units of alat)
               a(1) = (   0.500000   0.500000   0.500000 )  
               a(2) = (  -0.500000   0.500000   0.500000 )  
               a(3) = (  -0.500000  -0.500000   0.500000 )  

     reciprocal axes: (cart. coord. in units 2 pi/alat)
               b(1) = (  1.000000  0.000000  1.000000 )  
               b(2) = ( -1.000000  1.000000  0.000000 )  
               b(3) = (  0.000000 -1.000000  1.000000 )  


     PseudoPot. # 1 for Fe read from file:
     /home/pietro/repositories/materials-for-max-qe2021-online-school/pseudo/Fe.pz-spn-rrkjus_psl.0.2.1.UPF
     MD5 check sum: 3cbc4c6ff80f64c0ae98e6ac432cb3b7
     Pseudo is Ultrasoft + core correction, Zval = 16.0
     Generated using "atomic" code by A. Dal Corso  v.5.0.2 svn rev. 9415
     Using radial grid of 1191 points,  6 beta functions with: 
                l(1) =   0
                l(2) =   0
                l(3) =   1
                l(4) =   1
                l(5) =   2
                l(6) =   2
     Q(r) pseudized with 0 coefficients 


     atomic species   valence    mass     pseudopotential
        Fe            16.00    55.84500     Fe( 1.00)

     48 Sym. Ops., with inversion, found



   Cartesian axes

     site n.     atom                  positions (alat units)
         1           Fe  tau(   1) = (   0.0000000   0.0000000   0.0000000  )

     number of k points=    44  Marzari-Vanderbilt smearing, width (Ry)=  0.0200
                       cart. coord. in units 2pi/alat
        k(    1) = (   0.0000000   0.0000000   0.1000000), wk =   0.0120000
        k(    2) = (   0.0000000  -0.1000000   0.2000000), wk =   0.0480000
        k(    3) = (   0.0000000  -0.2000000   0.3000000), wk =   0.0480000
        k(    4) = (   0.0000000  -0.3000000   0.4000000), wk =   0.0480000
        k(    5) = (   0.0000000  -0.4000000   0.5000000), wk =   0.0480000
        k(    6) = (  -0.1000000   0.1000000   0.1000000), wk =   0.0160000
        k(    7) = (  -0.1000000  -0.1000000   0.3000000), wk =   0.0480000
        k(    8) = (  -0.1000000  -0.2000000   0.4000000), wk =   0.0960000
        k(    9) = (  -0.1000000  -0.3000000   0.5000000), wk =   0.0960000
        k(   10) = (  -0.1000000   0.6000000  -0.4000000), wk =   0.0480000
        k(   11) = (  -0.2000000   0.2000000   0.1000000), wk =   0.0480000
        k(   12) = (  -0.2000000  -0.2000000   0.5000000), wk =   0.0480000
        k(   13) = (  -0.2000000   0.7000000  -0.4000000), wk =   0.0960000
        k(   14) = (  -0.3000000   0.3000000   0.1000000), wk =   0.0480000
        k(   15) = (  -0.3000000   0.2000000   0.2000000), wk =   0.0480000
        k(   16) = (  -0.3000000   0.7000000  -0.3000000), wk =   0.0160000
        k(   17) = (  -0.4000000   0.4000000   0.1000000), wk =   0.0480000
        k(   18) = (  -0.4000000   0.3000000   0.2000000), wk =   0.0960000
        k(   19) = (   0.5000000  -0.5000000   0.1000000), wk =   0.0240000
        k(   20) = (   0.5000000  -0.6000000   0.2000000), wk =   0.0960000
        k(   21) = (   0.5000000  -0.7000000   0.3000000), wk =   0.0480000
        k(   22) = (   0.4000000  -0.6000000   0.3000000), wk =   0.0480000
        k(   23) = (   0.0000000   0.0000000   0.3000000), wk =   0.0120000
        k(   24) = (   0.0000000  -0.1000000   0.4000000), wk =   0.0480000
        k(   25) = (   0.0000000  -0.2000000   0.5000000), wk =   0.0480000
        k(   26) = (   0.0000000  -0.3000000   0.6000000), wk =   0.0480000
        k(   27) = (  -0.1000000  -0.1000000   0.5000000), wk =   0.0480000
        k(   28) = (  -0.1000000  -0.2000000   0.6000000), wk =   0.0960000
        k(   29) = (  -0.1000000   0.7000000  -0.3000000), wk =   0.0480000
        k(   30) = (  -0.2000000   0.8000000  -0.3000000), wk =   0.0480000
        k(   31) = (  -0.3000000   0.3000000   0.3000000), wk =   0.0160000
        k(   32) = (   0.6000000  -0.6000000   0.3000000), wk =   0.0480000
        k(   33) = (   0.5000000  -0.5000000   0.3000000), wk =   0.0240000
        k(   34) = (   0.5000000  -0.6000000   0.4000000), wk =   0.0480000
        k(   35) = (   0.0000000   0.0000000   0.5000000), wk =   0.0120000
        k(   36) = (   0.0000000  -0.1000000   0.6000000), wk =   0.0480000
        k(   37) = (   0.0000000  -0.2000000   0.7000000), wk =   0.0480000
        k(   38) = (  -0.1000000  -0.1000000   0.7000000), wk =   0.0480000
        k(   39) = (  -0.1000000   0.8000000  -0.2000000), wk =   0.0480000
        k(   40) = (   0.5000000  -0.5000000   0.5000000), wk =   0.0040000
        k(   41) = (   0.0000000   0.0000000   0.7000000), wk =   0.0120000
        k(   42) = (   0.0000000  -0.1000000   0.8000000), wk =   0.0480000
        k(   43) = (  -0.1000000   0.9000000  -0.1000000), wk =   0.0160000
        k(   44) = (   0.0000000   0.0000000   0.9000000), wk =   0.0120000

     Dense  grid:    42939 G-vectors     FFT dimensions: (  48,  48,  48)

     Smooth grid:     8151 G-vectors     FFT dimensions: (  27,  27,  27)

     Estimated max dynamical RAM per process >      93.67 MB

     Estimated total dynamical RAM >     176.85 MB

     Check: negative core charge=   -0.000009

     Initial potential from superposition of free atoms

     starting charge   15.99965, renormalised to   16.00000
     Starting wfcs are   13 randomized atomic wfcs

     total cpu time spent up to now is        0.7 secs

     Self-consistent Calculation

     iteration #  1     ecut=    70.00 Ry     beta= 0.70
     Davidson diagonalization with overlap
     ethr =  1.00E-02,  avg # of iterations =  2.8

     Threshold (ethr) on eigenvalues was too large:
     Diagonalizing with lowered threshold

     Davidson diagonalization with overlap
     ethr =  4.35E-05,  avg # of iterations =  5.0

     total cpu time spent up to now is        1.9 secs

     total energy              =    -254.12128765 Ry
     estimated scf accuracy    <       0.00683088 Ry

     iteration #  2     ecut=    70.00 Ry     beta= 0.70
     Davidson diagonalization with overlap
     ethr =  4.27E-05,  avg # of iterations =  2.2

     total cpu time spent up to now is        2.5 secs

     total energy              =    -254.12015264 Ry
     estimated scf accuracy    <       0.03028162 Ry

     iteration #  3     ecut=    70.00 Ry     beta= 0.70
     Davidson diagonalization with overlap
     ethr =  4.27E-05,  avg # of iterations =  2.0

     total cpu time spent up to now is        3.1 secs

     total energy              =    -254.12486981 Ry
     estimated scf accuracy    <       0.00003941 Ry

     iteration #  4     ecut=    70.00 Ry     beta= 0.70
     Davidson diagonalization with overlap
     ethr =  2.46E-07,  avg # of iterations =  4.9

     total cpu time spent up to now is        3.8 secs

     total energy              =    -254.12488917 Ry
     estimated scf accuracy    <       0.00001238 Ry

     iteration #  5     ecut=    70.00 Ry     beta= 0.70
     Davidson diagonalization with overlap
     ethr =  7.74E-08,  avg # of iterations =  1.9

     total cpu time spent up to now is        4.3 secs

     total energy              =    -254.12489035 Ry
     estimated scf accuracy    <       0.00000072 Ry

     iteration #  6     ecut=    70.00 Ry     beta= 0.70
     Davidson diagonalization with overlap
     ethr =  4.52E-09,  avg # of iterations =  2.9

     total cpu time spent up to now is        4.9 secs

     total energy              =    -254.12489060 Ry
     estimated scf accuracy    <       0.00000002 Ry

     iteration #  7     ecut=    70.00 Ry     beta= 0.70
     Davidson diagonalization with overlap
     ethr =  1.09E-10,  avg # of iterations =  4.0

     total cpu time spent up to now is        5.6 secs

     End of self-consistent calculation

          k = 0.0000 0.0000 0.1000 (   999 PWs)   bands (ev):

   -73.8067 -40.1643 -40.1617 -40.1617   5.5022  11.1600  11.1600  11.2015
    12.1335  12.2212  33.0417  33.8089

          k = 0.0000-0.1000 0.2000 (  1004 PWs)   bands (ev):

   -73.8025 -40.1919 -40.1721 -40.1624   6.1501  11.0316  11.1354  11.4861
    11.9891  12.2604  29.5723  32.0472

          k = 0.0000-0.2000 0.3000 (  1015 PWs)   bands (ev):

   -73.7957 -40.2381 -40.1885 -40.1622   7.3289  10.8101  11.0389  11.9537
    12.0031  12.3025  25.2623  30.5360

          k = 0.0000-0.3000 0.4000 (  1019 PWs)   bands (ev):

   -73.7889 -40.2836 -40.2049 -40.1617   8.5916  10.5953  11.2115  12.0780
    12.3979  12.5773  21.3083  28.9162

          k = 0.0000-0.4000 0.5000 (  1017 PWs)   bands (ev):

   -73.7847 -40.3112 -40.2150 -40.1614   9.1247  10.4658  11.8298  12.1373
    12.9690  13.0195  18.3012  27.9568

          k =-0.1000 0.1000 0.1000 (  1001 PWs)   bands (ev):

   -73.8046 -40.1837 -40.1618 -40.1618   5.8296  11.0733  11.0733  11.4286
    12.1564  12.1564  31.4857  31.4858

          k =-0.1000-0.1000 0.3000 (  1015 PWs)   bands (ev):

   -73.7971 -40.2237 -40.1832 -40.1694   7.0603  10.9723  10.9982  11.8363
    11.8692  12.3454  27.4707  28.0028

          k =-0.1000-0.2000 0.4000 (  1016 PWs)   bands (ev):

   -73.7903 -40.2639 -40.2016 -40.1710   8.3267  10.7417  10.9058  11.8867
    12.3402  12.6085  23.5106  26.2035

          k =-0.1000-0.3000 0.5000 (  1022 PWs)   bands (ev):

   -73.7849 -40.2961 -40.2182 -40.1712   9.2380  10.5869  11.0999  12.0392
    12.5491  13.5254  19.8587  25.1526

          k =-0.1000 0.6000-0.4000 (  1016 PWs)   bands (ev):

   -73.7828 -40.3080 -40.2243 -40.1712   9.4147  10.5386  11.3314  12.0620
    12.7419  14.5246  17.8349  24.7715

          k =-0.2000 0.2000 0.1000 (  1010 PWs)   bands (ev):

   -73.7991 -40.2214 -40.1754 -40.1620   6.7641  10.8645  10.9678  11.8885
    12.0678  12.2062  27.4324  29.6734

          k =-0.2000-0.2000 0.5000 (  1011 PWs)   bands (ev):

   -73.7849 -40.2839 -40.2227 -40.1771   9.3723  10.5077  10.8742  11.9629
    12.4265  13.6900  22.1584  22.3007

          k =-0.2000 0.7000-0.4000 (  1017 PWs)   bands (ev):

   -73.7816 -40.2923 -40.2423 -40.1788   9.8429  10.4961  10.8278  12.1081
    12.5080  15.4368  18.9062  21.5219

          k =-0.3000 0.3000 0.1000 (  1011 PWs)   bands (ev):

   -73.7921 -40.2647 -40.1945 -40.1620   8.0783  10.6296  10.9239  12.0863
    12.2602  12.5184  23.2630  28.1923

          k =-0.3000 0.2000 0.2000 (  1009 PWs)   bands (ev):

   -73.7934 -40.2561 -40.1846 -40.1693   7.8833  10.7079  10.7080  12.0739
    12.2581  12.5464  25.5480  25.8929

          k =-0.3000 0.7000-0.3000 (  1021 PWs)   bands (ev):

   -73.7804 -40.2717 -40.2717 -40.1813  10.2377  10.4877  10.4877  12.3310
    12.3310  17.8534  17.8534  19.2436

          k =-0.4000 0.4000 0.1000 (  1018 PWs)   bands (ev):

   -73.7866 -40.2991 -40.2105 -40.1623   9.0301  10.4520  11.4909  12.1612
    12.3046  13.2530  19.6579  27.6475

          k =-0.4000 0.3000 0.2000 (  1021 PWs)   bands (ev):

   -73.7877 -40.2839 -40.2062 -40.1723   9.0864  10.4917  10.7406  12.1273
    12.3208  13.4570  21.7459  24.4467

          k = 0.5000-0.5000 0.1000 (  1018 PWs)   bands (ev):

   -73.7844 -40.3118 -40.2168 -40.1624   9.2204  10.3865  12.1083  12.1792
    12.3225  13.9197  17.7687  27.1774

          k = 0.5000-0.6000 0.2000 (  1023 PWs)   bands (ev):

   -73.7842 -40.2979 -40.2231 -40.1732   9.5341  10.3873  11.2313  12.1956
    12.3697  14.7559  18.5772  23.7487

          k = 0.5000-0.7000 0.3000 (  1018 PWs)   bands (ev):

   -73.7841 -40.2861 -40.2287 -40.1800   9.8360  10.4074  10.7067  12.1959
    12.3599  14.9897  20.6397  20.8736

          k = 0.4000-0.6000 0.3000 (  1017 PWs)   bands (ev):

   -73.7828 -40.2794 -40.2458 -40.1820   9.9765  10.4193  10.7934  12.2574
    12.3569  16.7436  18.2201  20.4289

          k = 0.0000 0.0000 0.3000 (  1008 PWs)   bands (ev):

   -73.7985 -40.1975 -40.1825 -40.1825   6.7711  11.1978  11.1978  11.5017
    11.6567  12.3887  29.6500  30.0789

          k = 0.0000-0.1000 0.4000 (  1014 PWs)   bands (ev):

   -73.7920 -40.2360 -40.1991 -40.1855   7.8809  11.0534  11.0929  11.5826
    11.9451  12.5247  25.7636  28.1242

          k = 0.0000-0.2000 0.5000 (  1020 PWs)   bands (ev):

   -73.7854 -40.2782 -40.2160 -40.1844   9.0308  10.8155  10.9184  11.8377
    12.5266  12.9787  21.7710  26.5917

          k = 0.0000-0.3000 0.6000 (  1019 PWs)   bands (ev):

   -73.7814 -40.3045 -40.2261 -40.1831   9.4960  10.8085  10.9206  11.8981
    12.9327  14.3287  18.5632  25.7125

          k =-0.1000-0.1000 0.5000 (  1018 PWs)   bands (ev):

   -73.7856 -40.2631 -40.2183 -40.1943   8.9501  10.7093  11.1719  11.6545
    12.3171  12.9802  24.1482  24.2929

          k =-0.1000-0.2000 0.6000 (  1010 PWs)   bands (ev):

   -73.7805 -40.2884 -40.2361 -40.1946   9.6977  10.4769  11.0447  11.8901
    12.6379  14.3370  20.4860  23.1511

          k =-0.1000 0.7000-0.3000 (  1005 PWs)   bands (ev):

   -73.7785 -40.2984 -40.2430 -40.1942   9.8337  10.5606  10.9090  11.9504
    12.8199  15.9500  18.0942  22.7552

          k =-0.2000 0.8000-0.3000 (  1014 PWs)   bands (ev):

   -73.7774 -40.2856 -40.2622 -40.1973  10.1768  10.2403  10.8333  12.2244
    12.5779  16.5556  19.4765  20.0040

          k =-0.3000 0.3000 0.3000 (  1019 PWs)   bands (ev):

   -73.7888 -40.2788 -40.1873 -40.1873   9.0444  10.4828  10.4828  12.2338
    12.2338  13.4729  24.1218  24.1218

          k = 0.6000-0.6000 0.3000 (  1016 PWs)   bands (ev):

   -73.7851 -40.2849 -40.2135 -40.1891   9.8578  10.3507  10.6099  12.2617
    12.3135  14.8401  20.5178  23.2823

          k = 0.5000-0.5000 0.3000 (  1008 PWs)   bands (ev):

   -73.7837 -40.2822 -40.2281 -40.1896   9.9126  10.3083  10.9546  12.2820
    12.3360  16.3420  18.1598  22.9150

          k = 0.5000-0.6000 0.4000 (  1009 PWs)   bands (ev):

   -73.7835 -40.2673 -40.2334 -40.2019  10.1726  10.3958  10.5796  12.3140
    12.3373  16.8887  19.6858  20.0402

          k = 0.0000 0.0000 0.5000 (  1020 PWs)   bands (ev):

   -73.7859 -40.2397 -40.2165 -40.2165   8.7826  10.8660  11.4572  11.4572
    11.9936  12.8650  26.0404  26.0404

          k = 0.0000-0.1000 0.6000 (  1009 PWs)   bands (ev):

   -73.7797 -40.2696 -40.2335 -40.2199   9.5581  10.4376  11.4874  11.7352
    12.4568  13.7963  22.6064  24.4267

          k = 0.0000-0.2000 0.7000 (  1013 PWs)   bands (ev):

   -73.7760 -40.2929 -40.2443 -40.2177   9.8471  10.2442  11.4310  11.8445
    12.8746  15.7507  19.2049  23.5008

          k =-0.1000-0.1000 0.7000 (  1021 PWs)   bands (ev):

   -73.7750 -40.2819 -40.2544 -40.2265   9.8668  10.1069  11.5313  12.1052
    12.6751  15.5420  21.3903  21.5251

          k =-0.1000 0.8000-0.2000 (  1020 PWs)   bands (ev):

   -73.7732 -40.2870 -40.2644 -40.2260   9.9225  10.0082  11.4807  12.2959
    12.7860  17.7155  18.7075  21.0304

          k = 0.5000-0.5000 0.5000 (  1004 PWs)   bands (ev):

   -73.7832 -40.2352 -40.2352 -40.2352  10.4055  10.4055  10.4055  12.3444
    12.3444  19.3604  19.3604  19.3604

          k = 0.0000 0.0000 0.7000 (  1016 PWs)   bands (ev):

   -73.7741 -40.2661 -40.2514 -40.2514   9.7353  10.0685  12.0535  12.0535
    12.4921  15.1514  22.7074  22.7074

          k = 0.0000-0.1000 0.8000 (  1016 PWs)   bands (ev):

   -73.7706 -40.2819 -40.2623 -40.2526   9.7423   9.8114  12.1780  12.3041
    12.8176  17.3238  20.2100  21.6993

          k =-0.1000 0.9000-0.1000 (  1024 PWs)   bands (ev):

   -73.7690 -40.2775 -40.2775 -40.2556   9.6847   9.6847  12.2440  12.7417
    12.7417  19.5551  19.5551  19.9583

          k = 0.0000 0.0000 0.9000 (  1024 PWs)   bands (ev):

   -73.7673 -40.2755 -40.2737 -40.2737   9.5636   9.5789  12.7233  12.7233
    12.8029  19.1648  20.6128  20.6128

     the Fermi energy is    12.2282 ev

!    total energy              =    -254.12489061 Ry
     estimated scf accuracy    <          1.3E-09 Ry
     smearing contrib. (-TS)   =      -0.00363836 Ry
     internal energy E=F+TS    =    -254.12125224 Ry

     The total energy is F=E-TS. E is the sum of the following terms:
     one-electron contribution =    -137.02454117 Ry
     hartree contribution      =      74.93421323 Ry
     xc contribution           =     -34.12520175 Ry
     ewald contribution        =    -157.90572255 Ry

     convergence has been achieved in   7 iterations

     Writing output data file ./tempdir/fe.save/

     init_run     :      0.64s CPU      0.67s WALL (       1 calls)
     electrons    :      4.54s CPU      4.82s WALL (       1 calls)

     Called by init_run:
     wfcinit      :      0.15s CPU      0.15s WALL (       1 calls)
     potinit      :      0.02s CPU      0.02s WALL (       1 calls)
     hinit0       :      0.39s CPU      0.39s WALL (       1 calls)

     Called by electrons:
     c_bands      :      2.82s CPU      2.84s WALL (       8 calls)
     sum_band     :      1.10s CPU      1.25s WALL (       8 calls)
     v_of_rho     :      0.06s CPU      0.06s WALL (       8 calls)
     newd         :      0.57s CPU      0.69s WALL (       8 calls)
     mix_rho      :      0.03s CPU      0.03s WALL (       8 calls)

     Called by c_bands:
     init_us_2    :      0.07s CPU      0.07s WALL (     374 calls)
     cegterg      :      2.58s CPU      2.60s WALL (     176 calls)

     Called by *egterg:
     cdiaghg      :      0.08s CPU      0.08s WALL (     741 calls)
     h_psi        :      2.36s CPU      2.38s WALL (     785 calls)
     s_psi        :      0.03s CPU      0.04s WALL (     785 calls)
     g_psi        :      0.01s CPU      0.02s WALL (     587 calls)

     Called by h_psi:
     h_psi:calbec :      0.04s CPU      0.04s WALL (     785 calls)
     vloc_psi     :      2.27s CPU      2.29s WALL (     785 calls)
     add_vuspsi   :      0.04s CPU      0.04s WALL (     785 calls)

     General routines
     calbec       :      0.05s CPU      0.06s WALL (     961 calls)
     fft          :      0.08s CPU      0.08s WALL (      47 calls)
     ffts         :      0.00s CPU      0.00s WALL (      16 calls)
     fftw         :      2.43s CPU      2.45s WALL (   14500 calls)
     interpolate  :      0.02s CPU      0.02s WALL (       8 calls)

     Parallel routines

     PWSCF        :      5.26s CPU      5.58s WALL


   This run was terminated on:  22:12:45  18Apr2021            

=------------------------------------------------------------------------------=
   JOB DONE.
=------------------------------------------------------------------------------=
