
     Program PWSCF v.6.7GPU starts on 18Apr2021 at 22:12: 2 

     This program is part of the open-source Quantum ESPRESSO suite
     for quantum simulation of materials; please cite
         "P. Giannozzi et al., J. Phys.:Condens. Matter 21 395502 (2009);
         "P. Giannozzi et al., J. Phys.:Condens. Matter 29 465901 (2017);
         "P. Giannozzi et al., J. Chem. Phys. 152 154105 (2020);
          URL http://www.quantum-espresso.org", 
     in publications or presentations arising from this work. More details at
     http://www.quantum-espresso.org/quote

     Parallel version (MPI & OpenMP), running on       2 processor cores
     Number of MPI processes:                 2
     Threads/MPI process:                     1

     MPI processes distributed on     1 nodes
     K-points division:     npool     =       2
     Waiting for input...
     Reading input from standard input

     Current dimensions of program PWSCF are:
     Max number of different atomic species (ntypx) = 10
     Max number of k-points (npk) =  40000
     Max angular momentum in pseudopotentials (lmaxx) =  3

     Subspace diagonalization in iterative solution of the eigenvalue problem:
     a serial algorithm will be used


     G-vector sticks info
     --------------------
     sticks:   dense  smooth     PW     G-vecs:    dense   smooth      PW
     Sum        1291     415    129                29389     5473     959

     Using Slab Decomposition



     bravais-lattice index     =            3
     lattice parameter (alat)  =       5.2000  a.u.
     unit-cell volume          =      70.3040 (a.u.)^3
     number of atoms/cell      =            1
     number of atomic types    =            1
     number of electrons       =        16.00
     number of Kohn-Sham states=           12
     kinetic-energy cutoff     =      70.0000  Ry
     charge density cutoff     =     850.0000  Ry
     scf convergence threshold =      1.0E-08
     mixing beta               =       0.7000
     number of iterations used =            8  plain     mixing
     Exchange-correlation= LDA
                           (   1   1   0   0   0   0   0)

     celldm(1)=   5.200000  celldm(2)=   0.000000  celldm(3)=   0.000000
     celldm(4)=   0.000000  celldm(5)=   0.000000  celldm(6)=   0.000000

     crystal axes: (cart. coord. in units of alat)
               a(1) = (   0.500000   0.500000   0.500000 )  
               a(2) = (  -0.500000   0.500000   0.500000 )  
               a(3) = (  -0.500000  -0.500000   0.500000 )  

     reciprocal axes: (cart. coord. in units 2 pi/alat)
               b(1) = (  1.000000  0.000000  1.000000 )  
               b(2) = ( -1.000000  1.000000  0.000000 )  
               b(3) = (  0.000000 -1.000000  1.000000 )  


     PseudoPot. # 1 for Fe read from file:
     /home/pietro/repositories/materials-for-max-qe2021-online-school/pseudo/Fe.pz-spn-rrkjus_psl.0.2.1.UPF
     MD5 check sum: 3cbc4c6ff80f64c0ae98e6ac432cb3b7
     Pseudo is Ultrasoft + core correction, Zval = 16.0
     Generated using "atomic" code by A. Dal Corso  v.5.0.2 svn rev. 9415
     Using radial grid of 1191 points,  6 beta functions with: 
                l(1) =   0
                l(2) =   0
                l(3) =   1
                l(4) =   1
                l(5) =   2
                l(6) =   2
     Q(r) pseudized with 0 coefficients 


     atomic species   valence    mass     pseudopotential
        Fe            16.00    55.84500     Fe( 1.00)

     48 Sym. Ops., with inversion, found



   Cartesian axes

     site n.     atom                  positions (alat units)
         1           Fe  tau(   1) = (   0.0000000   0.0000000   0.0000000  )

     number of k points=    44  Marzari-Vanderbilt smearing, width (Ry)=  0.0200
                       cart. coord. in units 2pi/alat
        k(    1) = (   0.0000000   0.0000000   0.1000000), wk =   0.0120000
        k(    2) = (   0.0000000  -0.1000000   0.2000000), wk =   0.0480000
        k(    3) = (   0.0000000  -0.2000000   0.3000000), wk =   0.0480000
        k(    4) = (   0.0000000  -0.3000000   0.4000000), wk =   0.0480000
        k(    5) = (   0.0000000  -0.4000000   0.5000000), wk =   0.0480000
        k(    6) = (  -0.1000000   0.1000000   0.1000000), wk =   0.0160000
        k(    7) = (  -0.1000000  -0.1000000   0.3000000), wk =   0.0480000
        k(    8) = (  -0.1000000  -0.2000000   0.4000000), wk =   0.0960000
        k(    9) = (  -0.1000000  -0.3000000   0.5000000), wk =   0.0960000
        k(   10) = (  -0.1000000   0.6000000  -0.4000000), wk =   0.0480000
        k(   11) = (  -0.2000000   0.2000000   0.1000000), wk =   0.0480000
        k(   12) = (  -0.2000000  -0.2000000   0.5000000), wk =   0.0480000
        k(   13) = (  -0.2000000   0.7000000  -0.4000000), wk =   0.0960000
        k(   14) = (  -0.3000000   0.3000000   0.1000000), wk =   0.0480000
        k(   15) = (  -0.3000000   0.2000000   0.2000000), wk =   0.0480000
        k(   16) = (  -0.3000000   0.7000000  -0.3000000), wk =   0.0160000
        k(   17) = (  -0.4000000   0.4000000   0.1000000), wk =   0.0480000
        k(   18) = (  -0.4000000   0.3000000   0.2000000), wk =   0.0960000
        k(   19) = (   0.5000000  -0.5000000   0.1000000), wk =   0.0240000
        k(   20) = (   0.5000000  -0.6000000   0.2000000), wk =   0.0960000
        k(   21) = (   0.5000000  -0.7000000   0.3000000), wk =   0.0480000
        k(   22) = (   0.4000000  -0.6000000   0.3000000), wk =   0.0480000
        k(   23) = (   0.0000000   0.0000000   0.3000000), wk =   0.0120000
        k(   24) = (   0.0000000  -0.1000000   0.4000000), wk =   0.0480000
        k(   25) = (   0.0000000  -0.2000000   0.5000000), wk =   0.0480000
        k(   26) = (   0.0000000  -0.3000000   0.6000000), wk =   0.0480000
        k(   27) = (  -0.1000000  -0.1000000   0.5000000), wk =   0.0480000
        k(   28) = (  -0.1000000  -0.2000000   0.6000000), wk =   0.0960000
        k(   29) = (  -0.1000000   0.7000000  -0.3000000), wk =   0.0480000
        k(   30) = (  -0.2000000   0.8000000  -0.3000000), wk =   0.0480000
        k(   31) = (  -0.3000000   0.3000000   0.3000000), wk =   0.0160000
        k(   32) = (   0.6000000  -0.6000000   0.3000000), wk =   0.0480000
        k(   33) = (   0.5000000  -0.5000000   0.3000000), wk =   0.0240000
        k(   34) = (   0.5000000  -0.6000000   0.4000000), wk =   0.0480000
        k(   35) = (   0.0000000   0.0000000   0.5000000), wk =   0.0120000
        k(   36) = (   0.0000000  -0.1000000   0.6000000), wk =   0.0480000
        k(   37) = (   0.0000000  -0.2000000   0.7000000), wk =   0.0480000
        k(   38) = (  -0.1000000  -0.1000000   0.7000000), wk =   0.0480000
        k(   39) = (  -0.1000000   0.8000000  -0.2000000), wk =   0.0480000
        k(   40) = (   0.5000000  -0.5000000   0.5000000), wk =   0.0040000
        k(   41) = (   0.0000000   0.0000000   0.7000000), wk =   0.0120000
        k(   42) = (   0.0000000  -0.1000000   0.8000000), wk =   0.0480000
        k(   43) = (  -0.1000000   0.9000000  -0.1000000), wk =   0.0160000
        k(   44) = (   0.0000000   0.0000000   0.9000000), wk =   0.0120000

     Dense  grid:    29389 G-vectors     FFT dimensions: (  45,  45,  45)

     Smooth grid:     5473 G-vectors     FFT dimensions: (  24,  24,  24)

     Estimated max dynamical RAM per process >      65.90 MB

     Estimated total dynamical RAM >     124.63 MB

     Check: negative core charge=   -0.000011

     Initial potential from superposition of free atoms

     starting charge   15.99965, renormalised to   16.00000
     Starting wfcs are   13 randomized atomic wfcs

     total cpu time spent up to now is        0.6 secs

     Self-consistent Calculation

     iteration #  1     ecut=    70.00 Ry     beta= 0.70
     Davidson diagonalization with overlap
     ethr =  1.00E-02,  avg # of iterations =  3.2

     Threshold (ethr) on eigenvalues was too large:
     Diagonalizing with lowered threshold

     Davidson diagonalization with overlap
     ethr =  2.92E-04,  avg # of iterations =  3.5

     total cpu time spent up to now is        1.2 secs

     total energy              =    -254.19030057 Ry
     estimated scf accuracy    <       0.04698224 Ry

     iteration #  2     ecut=    70.00 Ry     beta= 0.70
     Davidson diagonalization with overlap
     ethr =  2.94E-04,  avg # of iterations =  2.1

     total cpu time spent up to now is        1.6 secs

     total energy              =    -254.19569193 Ry
     estimated scf accuracy    <       0.12037958 Ry

     iteration #  3     ecut=    70.00 Ry     beta= 0.70
     Davidson diagonalization with overlap
     ethr =  2.94E-04,  avg # of iterations =  2.0

     total cpu time spent up to now is        1.9 secs

     total energy              =    -254.21652130 Ry
     estimated scf accuracy    <       0.00008201 Ry

     iteration #  4     ecut=    70.00 Ry     beta= 0.70
     Davidson diagonalization with overlap
     ethr =  5.13E-07,  avg # of iterations =  6.1

     total cpu time spent up to now is        2.4 secs

     total energy              =    -254.21663113 Ry
     estimated scf accuracy    <       0.00004652 Ry

     iteration #  5     ecut=    70.00 Ry     beta= 0.70
     Davidson diagonalization with overlap
     ethr =  2.91E-07,  avg # of iterations =  1.6

     total cpu time spent up to now is        2.7 secs

     total energy              =    -254.21663390 Ry
     estimated scf accuracy    <       0.00000397 Ry

     iteration #  6     ecut=    70.00 Ry     beta= 0.70
     Davidson diagonalization with overlap
     ethr =  2.48E-08,  avg # of iterations =  2.4

     total cpu time spent up to now is        3.0 secs

     End of self-consistent calculation

          k = 0.0000 0.0000 0.1000 (   679 PWs)   bands (ev):

   -66.5112 -32.6381 -32.6278 -32.6278  11.2115  18.1504  18.1504  18.2224
    19.7995  19.9670  44.5130  45.5542

          k = 0.0000-0.1000 0.2000 (   686 PWs)   bands (ev):

   -66.4892 -32.7441 -32.6638 -32.6307  12.0646  17.9188  18.0954  18.7096
    19.5311  20.0445  41.4824  44.1106

          k = 0.0000-0.2000 0.3000 (   688 PWs)   bands (ev):

   -66.4534 -32.9177 -32.7213 -32.6305  13.5175  17.5265  17.9235  19.4873
    19.5997  20.1326  37.0189  41.9001

          k = 0.0000-0.3000 0.4000 (   686 PWs)   bands (ev):

   -66.4175 -33.0885 -32.7782 -32.6301  14.7455  17.1526  18.3000  19.7291
    20.3125  20.5981  32.5464  40.0954

          k = 0.0000-0.4000 0.5000 (   695 PWs)   bands (ev):

   -66.3952 -33.1937 -32.8134 -32.6301  15.0378  16.9300  19.2326  19.8482
    21.0676  21.2878  29.1707  39.0975

          k =-0.1000 0.1000 0.1000 (   679 PWs)   bands (ev):

   -66.5000 -32.7108 -32.6282 -32.6282  11.6461  17.9931  17.9931  18.6150
    19.8450  19.8450  43.3493  43.3493

          k =-0.1000-0.1000 0.3000 (   684 PWs)   bands (ev):

   -66.4607 -32.8622 -32.7040 -32.6555  13.2158  17.8134  17.8319  19.2588
    19.3699  20.2167  39.1217  40.5623

          k =-0.1000-0.2000 0.4000 (   692 PWs)   bands (ev):

   -66.4253 -33.0137 -32.7709 -32.6625  14.6467  17.3873  17.7112  19.3708
    20.2028  20.6730  35.0204  38.1798

          k =-0.1000-0.3000 0.5000 (   690 PWs)   bands (ev):

   -66.3966 -33.1345 -32.8283 -32.6635  15.3550  17.1373  18.0709  19.6584
    20.5726  22.0668  30.8427  36.8675

          k =-0.1000 0.6000-0.4000 (   703 PWs)   bands (ev):

   -66.3857 -33.1810 -32.8511 -32.6640  15.4050  17.0565  18.4037  19.7139
    20.8762  23.2143  28.6350  36.3855

          k =-0.2000 0.2000 0.1000 (   686 PWs)   bands (ev):

   -66.4707 -32.8533 -32.6762 -32.6299  12.8481  17.6211  17.7937  19.4084
    19.6904  19.9427  39.3017  41.5074

          k =-0.2000-0.2000 0.5000 (   701 PWs)   bands (ev):

   -66.3972 -33.0882 -32.8526 -32.6834  15.7248  16.9744  17.6771  19.5120
    20.3746  22.3773  33.1128  33.9736

          k =-0.2000 0.7000-0.4000 (   704 PWs)   bands (ev):

   -66.3798 -33.1185 -32.9247 -32.6898  16.0749  16.9931  17.5839  19.7814
    20.4946  24.6816  29.5811  32.7360

          k =-0.3000 0.3000 0.1000 (   685 PWs)   bands (ev):

   -66.4343 -33.0178 -32.7439 -32.6312  14.3486  17.2120  17.7705  19.7426
    20.0508  20.4907  34.7490  39.7226

          k =-0.3000 0.2000 0.2000 (   687 PWs)   bands (ev):

   -66.4408 -32.9833 -32.7134 -32.6569  14.2168  17.3328  17.3558  19.7080
    20.0515  20.5418  36.9697  37.9468

          k =-0.3000 0.7000-0.3000 (   715 PWs)   bands (ev):

   -66.3733 -33.0387 -33.0387 -32.6971  16.6355  16.9979  16.9979  20.1750
    20.1750  27.7337  27.7337  30.5449

          k =-0.4000 0.4000 0.1000 (   697 PWs)   bands (ev):

   -66.4048 -33.1480 -32.8004 -32.6330  15.0738  16.9081  18.7661  19.8898
    20.1426  21.6582  30.6443  38.4445

          k =-0.4000 0.3000 0.2000 (   693 PWs)   bands (ev):

   -66.4108 -33.0877 -32.7908 -32.6688  15.4299  16.9763  17.5004  19.8161
    20.1773  22.0154  32.9309  36.0388

          k = 0.5000-0.5000 0.1000 (   696 PWs)   bands (ev):

   -66.3935 -33.1969 -32.8221 -32.6333  15.1349  16.7969  19.6263  19.9351
    20.1803  22.4261  28.6034  37.9828

          k = 0.5000-0.6000 0.2000 (   698 PWs)   bands (ev):

   -66.3922 -33.1427 -32.8507 -32.6731  15.6413  16.8070  18.3044  19.9524
    20.2624  23.7129  29.3562  35.1595

          k = 0.5000-0.7000 0.3000 (   698 PWs)   bands (ev):

   -66.3917 -33.0967 -32.8795 -32.6961  16.1490  16.8585  17.4602  19.9416
    20.2518  24.1881  31.1983  32.3163

          k = 0.4000-0.6000 0.3000 (   704 PWs)   bands (ev):

   -66.3845 -33.0730 -32.9436 -32.7040  16.2353  16.8951  17.5634  20.0581
    20.2368  26.2466  28.6968  31.5454

          k = 0.0000 0.0000 0.3000 (   695 PWs)   bands (ev):

   -66.4683 -32.7711 -32.7010 -32.7010  12.8608  18.2031  18.2031  18.7276
    18.9054  20.3001  40.8948  43.0311

          k = 0.0000-0.1000 0.4000 (   689 PWs)   bands (ev):

   -66.4343 -32.9106 -32.7599 -32.7151  14.1890  17.8869  18.0131  18.8247
    19.4918  20.5756  37.5872  40.8175

          k = 0.0000-0.2000 0.5000 (   695 PWs)   bands (ev):

   -66.4002 -33.0667 -32.8185 -32.7117  15.3018  17.5119  17.7073  19.2888
    20.5052  21.3233  33.0596  39.0965

          k = 0.0000-0.3000 0.6000 (   703 PWs)   bands (ev):

   -66.3791 -33.1633 -32.8548 -32.7087  15.5382  17.5170  17.7164  19.4133
    21.2226  23.0409  29.3814  37.9559

          k =-0.1000-0.1000 0.5000 (   706 PWs)   bands (ev):

   -66.4017 -33.0106 -32.8307 -32.7460  15.3276  17.2603  18.1486  18.9656
    20.1457  21.3546  35.5751  36.3117

          k =-0.1000-0.2000 0.6000 (   700 PWs)   bands (ev):

   -66.3751 -33.1022 -32.8965 -32.7477  15.9493  16.9247  17.9204  19.3871
    20.7140  23.2791  31.4784  34.6626

          k =-0.1000 0.7000-0.3000 (   707 PWs)   bands (ev):

   -66.3650 -33.1389 -32.9223 -32.7467  15.9513  17.0995  17.6966  19.5055
    21.0210  25.1551  28.7987  34.1399

          k =-0.2000 0.8000-0.3000 (   700 PWs)   bands (ev):

   -66.3596 -33.0886 -32.9953 -32.7540  16.5095  16.5149  17.5884  19.9722
    20.6008  26.1802  29.8489  31.2116

          k =-0.3000 0.3000 0.3000 (   697 PWs)   bands (ev):

   -66.4162 -33.0674 -32.7251 -32.7251  15.5946  16.9642  16.9642  20.0103
    20.0103  22.0582  35.2689  35.2689

          k = 0.6000-0.6000 0.3000 (   696 PWs)   bands (ev):

   -66.3963 -33.0930 -32.8225 -32.7338  16.2423  16.7562  17.3321  20.0684
    20.1629  24.0043  31.4103  34.1804

          k = 0.5000-0.5000 0.3000 (   702 PWs)   bands (ev):

   -66.3887 -33.0863 -32.8765 -32.7375  16.1719  16.6911  17.8523  20.1092
    20.2067  25.6998  28.8481  33.8037

          k = 0.5000-0.6000 0.4000 (   695 PWs)   bands (ev):

   -66.3874 -33.0293 -32.9011 -32.7822  16.5283  16.8794  17.2505  20.1648
    20.2092  26.6141  29.9765  31.2705

          k = 0.0000 0.0000 0.5000 (   703 PWs)   bands (ev):

   -66.4034 -32.9287 -32.8221 -32.8221  15.1638  17.4855  18.6396  18.6396
    19.5684  21.2032  38.3628  38.3629

          k = 0.0000-0.1000 0.6000 (   698 PWs)   bands (ev):

   -66.3723 -33.0326 -32.8834 -32.8396  15.8397  16.7699  18.6853  19.1154
    20.3779  22.5864  33.9977  36.2788

          k = 0.0000-0.2000 0.7000 (   700 PWs)   bands (ev):

   -66.3530 -33.1141 -32.9209 -32.8328  15.9324  16.5326  18.5847  19.3246
    21.1181  25.0609  29.9380  35.0251

          k =-0.1000-0.1000 0.7000 (   693 PWs)   bands (ev):

   -66.3484 -33.0708 -32.9605 -32.8590  16.0248  16.2178  18.7701  19.7549
    20.7675  24.8964  32.2730  32.7762

          k =-0.1000 0.8000-0.2000 (   695 PWs)   bands (ev):

   -66.3393 -33.0858 -32.9986 -32.8575  15.9524  16.1203  18.6920  20.0938
    20.9583  27.4701  29.2571  31.9905

          k = 0.5000-0.5000 0.5000 (   688 PWs)   bands (ev):

   -66.3857 -32.9092 -32.9092 -32.9092  16.9111  16.9111  16.9111  20.2230
    20.2230  29.5571  29.5571  29.5571

          k = 0.0000 0.0000 0.7000 (   699 PWs)   bands (ev):

   -66.3442 -33.0163 -32.9476 -32.9476  15.8214  16.1251  19.6625  19.6625
    20.4384  24.3866  33.9709  33.9709

          k = 0.0000-0.1000 0.8000 (   699 PWs)   bands (ev):

   -66.3268 -33.0646 -32.9867 -32.9554  15.6633  15.7287  19.8781  20.1056
    21.0161  27.0886  30.8322  32.5577

          k =-0.1000 0.9000-0.1000 (   697 PWs)   bands (ev):

   -66.3185 -33.0432 -33.0432 -32.9640  15.5212  15.5212  19.9977  20.8775
    20.8775  29.7499  29.7499  30.6134

          k = 0.0000 0.0000 0.9000 (   691 PWs)   bands (ev):

   -66.3106 -33.0373 -33.0266 -33.0266  15.3164  15.3203  20.8439  20.8439
    20.9906  29.2552  30.9982  30.9982

     the Fermi energy is    19.9871 ev

!    total energy              =    -254.21663475 Ry
     estimated scf accuracy    <          4.2E-09 Ry
     smearing contrib. (-TS)   =      -0.00125730 Ry
     internal energy E=F+TS    =    -254.21537745 Ry

     The total energy is F=E-TS. E is the sum of the following terms:
     one-electron contribution =    -102.84457811 Ry
     hartree contribution      =      62.18221393 Ry
     xc contribution           =     -34.39075114 Ry
     ewald contribution        =    -179.16226213 Ry

     convergence has been achieved in   6 iterations

     Writing output data file ./tempdir/fe.save/

     init_run     :      0.54s CPU      0.55s WALL (       1 calls)
     electrons    :      2.26s CPU      2.44s WALL (       1 calls)

     Called by init_run:
     wfcinit      :      0.08s CPU      0.08s WALL (       1 calls)
     potinit      :      0.01s CPU      0.01s WALL (       1 calls)
     hinit0       :      0.38s CPU      0.39s WALL (       1 calls)

     Called by electrons:
     c_bands      :      1.34s CPU      1.37s WALL (       7 calls)
     sum_band     :      0.57s CPU      0.65s WALL (       7 calls)
     v_of_rho     :      0.04s CPU      0.04s WALL (       7 calls)
     newd         :      0.32s CPU      0.40s WALL (       7 calls)
     mix_rho      :      0.02s CPU      0.02s WALL (       7 calls)

     Called by c_bands:
     init_us_2    :      0.04s CPU      0.04s WALL (     330 calls)
     cegterg      :      1.25s CPU      1.27s WALL (     154 calls)

     Called by *egterg:
     cdiaghg      :      0.07s CPU      0.07s WALL (     623 calls)
     h_psi        :      1.10s CPU      1.12s WALL (     667 calls)
     s_psi        :      0.02s CPU      0.02s WALL (     667 calls)
     g_psi        :      0.01s CPU      0.01s WALL (     491 calls)

     Called by h_psi:
     h_psi:calbec :      0.02s CPU      0.03s WALL (     667 calls)
     vloc_psi     :      1.05s CPU      1.07s WALL (     667 calls)
     add_vuspsi   :      0.02s CPU      0.02s WALL (     667 calls)

     General routines
     calbec       :      0.03s CPU      0.03s WALL (     821 calls)
     fft          :      0.06s CPU      0.06s WALL (      41 calls)
     ffts         :      0.00s CPU      0.00s WALL (      14 calls)
     fftw         :      1.10s CPU      1.13s WALL (   12414 calls)
     interpolate  :      0.01s CPU      0.01s WALL (       7 calls)

     Parallel routines

     PWSCF        :      2.85s CPU      3.06s WALL


   This run was terminated on:  22:12: 5  18Apr2021            

=------------------------------------------------------------------------------=
   JOB DONE.
=------------------------------------------------------------------------------=
